G4DP-PAMAM in water
70249
    1aaa     N1    1   3.273   4.649   1.691 -0.2665 -0.6780 -0.1284
    1aaa     C1    2   3.164   4.735   1.750 -0.3649 -0.3288 -0.1723
    1aaa     C2    3   3.189   4.889   1.759  0.2850 -0.2079 -0.3787
    1aaa     N2    4   3.083   4.980   1.820  0.0940 -0.0499  0.3283
    1aaa     C3    5   2.964   4.969   1.723  0.5629  0.1099 -0.6856
    1aaa     C4    6   3.126   5.122   1.833  0.3460 -0.2553  0.2329
    1aaa     C5    7   3.294   4.686   1.544  0.9402  0.1074 -0.4271
    1aaa     C6    8   3.230   4.504   1.688  0.0745 -0.9608  0.0381
    1aaa     C7    9   3.205   5.147   1.964 -0.1657  0.0057  0.8297
    1aaa     C8   10   3.116   5.117   2.086  0.2510  0.2560  1.1047
    1aaa     C9   11   2.835   5.040   1.768  0.0403 -0.3495 -0.0459
    1aaa    C10   12   2.710   5.010   1.678 -0.1796 -0.3736 -0.1009
    1aaa    C11   13   3.422   4.772   1.514 -0.4766 -0.0594  0.2740
    1aaa    C12   14   3.446   4.781   1.364 -0.4239 -0.2357 -0.1633
    1aaa    C13   15   3.181   4.439   1.825 -0.0647 -0.4652  0.1114
    1aaa    C14   16   3.149   4.295   1.806  0.2119  0.5535  0.0979
    1aaa     O1   17   2.716   4.921   1.595 -0.1567 -0.2391  0.3444
    1aaa     O2   18   2.996   5.098   2.069  0.2319 -0.1257 -0.3262
    1aaa     O3   19   3.049   4.258   1.747 -0.3050  0.1732 -0.3872
    1aaa     O4   20   3.361   4.780   1.279 -0.3299  0.0999 -0.2162
    1aaa     H1   21   3.159   4.697   1.851 -0.6408 -0.6783 -0.3184
    1aaa     H2   22   3.074   4.722   1.690 -0.3792  0.2131 -0.2742
    1aaa     H3   23   3.197   4.916   1.653  0.6184 -0.1775 -0.3476
    1aaa     H4   24   3.286   4.906   1.806  1.5621  0.4912 -3.0712
    1aaa     H5   25   2.951   4.862   1.732 -0.1670  0.4097  3.3123
    1aaa     H6   26   2.999   4.997   1.623  1.3138  0.7435 -0.2587
    1aaa     H7   27   3.173   5.145   1.738  0.1113 -2.0488 -0.3628
    1aaa     H8   28   3.032   5.178   1.841 -0.0629 -1.0093  0.8787
    1aaa     H9   29   3.289   4.598   1.481 -2.0569  0.6491 -1.0939
    1aaa    H10   30   3.213   4.749   1.508  0.6491 -1.2367 -2.2257
    1aaa    H11   31   3.139   4.497   1.628 -1.4267  0.3868  2.0449
    1aaa    H12   32   3.311   4.447   1.640  0.2323  0.8400 -1.9518
    1aaa    H13   33   3.294   5.083   1.967  1.9089  2.7109  3.2791
    1aaa    H14   34   3.235   5.253   1.966 -0.6182  0.1781 -0.4677
    1aaa    H15   35   2.844   5.148   1.753  0.3488 -0.5590 -1.4871
    1aaa    H16   36   2.819   5.028   1.876 -1.6767 -0.6591 -0.3027
    1aaa    H17   37   3.425   4.877   1.548 -0.5861  0.3287 -0.8833
    1aaa    H18   38   3.497   4.720   1.575  0.0607 -0.1368 -0.4512
    1aaa    H19   39   3.265   4.450   1.894  1.8444 -1.5865 -1.8891
    1aaa    H20   40   3.090   4.484   1.865 -0.2293 -2.1903  1.8589
    1aaa    H37   41   3.362   4.661   1.740  0.8120  0.2102 -2.1683
    1aaa    H38   42   3.059   4.940   1.912 -0.4174 -0.6518 -0.0541
    2bbb     N1   43   3.266   5.167   2.498 -0.3834  0.4599 -0.6396
    2bbb     C1   44   3.361   5.147   2.611 -0.5768 -0.5576 -0.6467
    2bbb     C2   45   3.138   5.237   2.547 -0.0936 -0.2133 -0.1068
    2bbb     C3   46   3.505   5.113   2.564  0.0833 -0.9244 -0.9978
    2bbb     C4   47   3.594   5.092   2.686  0.6640 -0.1701  0.4477
    2bbb     C5   48   3.165   5.380   2.602 -0.2256 -0.2830  0.2749
    2bbb     C6   49   3.044   5.465   2.620  0.7419  0.3927 -0.0118
    2bbb     C7   50   3.215   5.029   2.448  0.1995 -0.5743  0.1216
    2bbb     C8   51   3.122   5.023   2.317  0.7306  0.7868  0.3751
    2bbb     N2   52   3.176   5.095   2.207 -0.1334  0.3269  0.0602
    2bbb     O1   53   3.595   5.170   2.778 -0.7909  0.1827  0.1666
    2bbb     O2   54   2.965   5.475   2.528 -0.3456  0.0670  0.1996
    2bbb     H1   55   3.368   5.235   2.674  0.2309 -0.6821 -0.5442
    2bbb     H2   56   3.329   5.067   2.679 -0.6060 -0.8055 -0.9470
    2bbb     H3   57   3.102   5.169   2.625 -0.5231 -0.5120 -0.5664
    2bbb     H4   58   3.071   5.234   2.461 -1.2166  0.7027  0.7146
    2bbb     H5   59   3.507   5.027   2.496  0.5404 -0.0586 -2.1101
    2bbb     H6   60   3.542   5.200   2.508  0.0322  0.2846  0.7885
    2bbb     H7   61   3.230   5.439   2.537 -0.3958 -1.0160 -0.5918
    2bbb     H8   62   3.219   5.365   2.696 -1.0148  0.1556  0.8107
    2bbb     H9   63   3.187   4.966   2.533  1.1827  0.7564  1.4760
    2bbb    H10   64   3.311   4.995   2.409  1.0351  1.1877  0.5595
    2bbb    H11   65   3.016   5.043   2.335  0.1068 -0.7355 -1.3405
    2bbb    H12   66   3.129   4.918   2.286  2.3780  1.2741 -1.0399
    2bbb    H13   67   3.276   5.112   2.214  0.1270 -0.6109 -1.0530
    2bbb    H25   68   3.312   5.215   2.420 -0.5172 -0.9625 -1.6264
    3bbb     N1   69   2.258   5.182   1.518 -0.5163  0.1126 -0.0224
    3bbb     C1   70   2.293   5.200   1.367 -0.3292  0.2363  0.2666
    3bbb     C2   71   2.142   5.271   1.555  0.0581 -0.5629 -0.3161
    3bbb     C3   72   2.187   5.150   1.258 -0.5578  0.0266 -0.7218
    3bbb     C4   73   2.252   5.132   1.119  1.0572  0.3461 -0.1654
    3bbb     C5   74   2.080   5.246   1.699 -0.0778  0.1023 -0.2463
    3bbb     C6   75   1.949   5.322   1.718  0.2403 -0.1700 -0.1465
    3bbb     C7   76   2.379   5.200   1.601 -0.4484  0.7203 -0.4515
    3bbb     C8   77   2.488   5.089   1.581 -0.2081  0.7172  0.6109
    3bbb     N2   78   2.601   5.093   1.678  0.4238 -0.2195 -0.5588
    3bbb     O1   79   2.314   5.030   1.094 -0.3735 -0.5795  0.0857
    3bbb     O2   80   1.883   5.362   1.623  0.6573  0.3252 -0.3063
    3bbb     H1   81   2.319   5.304   1.344  0.9240  0.2288  1.5243
    3bbb     H2   82   2.376   5.132   1.346 -1.9588 -1.2278 -1.9192
    3bbb     H3   83   2.068   5.243   1.480  1.5374 -1.7890 -1.3721
    3bbb     H4   84   2.170   5.376   1.557  1.4815 -0.9278 -0.0041
    3bbb     H5   85   2.147   5.052   1.285 -0.8812 -0.1686 -1.8581
    3bbb     H6   86   2.097   5.214   1.258 -0.3807  0.2799 -0.8219
    3bbb     H7   87   2.153   5.282   1.772 -1.1346  1.1531  0.3400
    3bbb     H8   88   2.061   5.139   1.714  3.8676 -0.6143  0.7474
    3bbb     H9   89   2.361   5.203   1.709  1.2928  0.7151 -0.1364
    3bbb    H10   90   2.417   5.301   1.586  0.8528  0.7483  2.3305
    3bbb    H11   91   2.511   5.098   1.474 -0.0810  0.1630  0.5901
    3bbb    H12   92   2.445   4.989   1.593  1.7830 -0.6208 -2.2578
    3bbb    H13   93   2.591   5.167   1.746 -0.7433 -1.9475  1.2614
    3bbb    H25   94   2.214   5.089   1.526  0.5371 -0.4923 -0.9855
    4bbb     N1   95   3.839   4.795   1.047 -0.1362  0.1664  0.7373
    4bbb     C1   96   3.973   4.722   1.049  0.0955  0.1481 -0.7669
    4bbb     C2   97   3.855   4.946   1.015 -0.2477 -0.5941 -0.8333
    4bbb     C3   98   3.972   4.570   1.070  0.1993  0.3196  0.1072
    4bbb     C4   99   4.111   4.510   1.092  0.4963 -0.4656 -0.6440
    4bbb     C5  100   3.922   4.986   0.884 -0.2244 -0.5582 -0.0038
    4bbb     C6  101   3.995   5.120   0.887  0.2775  0.2876  0.1472
    4bbb     C7  102   3.768   4.778   1.183  0.3104 -0.3091 -0.1151
    4bbb     C8  103   3.624   4.812   1.188  0.7331  0.3981  0.5436
    4bbb     N2  104   3.579   4.776   1.323 -0.0738 -0.0624 -0.0803
    4bbb     O1  105   4.211   4.566   1.068 -0.0922  0.4851  0.1216
    4bbb     O2  106   4.046   5.167   0.983  0.3913  0.2746  0.3265
    4bbb     H1  107   4.017   4.737   0.950  0.2882  0.3358 -0.6544
    4bbb     H2  108   4.027   4.775   1.128  1.6853 -0.8951 -1.0997
    4bbb     H3  109   3.907   4.994   1.098 -1.7979 -0.4397  0.0821
    4bbb     H4  110   3.753   4.984   1.015 -0.2724 -0.6535 -0.4164
    4bbb     H5  111   3.899   4.544   1.147 -3.2558  2.4569 -2.1168
    4bbb     H6  112   3.932   4.530   0.976  1.9747  3.2357 -2.0838
    4bbb     H7  113   3.844   4.995   0.807  0.0287  0.2905 -0.1771
    4bbb     H8  114   4.004   4.919   0.855  2.4866  2.4106  0.2257
    4bbb     H9  115   3.815   4.837   1.262 -2.4352 -1.4478  2.5723
    4bbb    H10  116   3.771   4.674   1.216  0.7958  0.3178  2.0224
    4bbb    H11  117   3.563   4.756   1.117  1.5937 -1.6041  1.3271
    4bbb    H12  118   3.602   4.916   1.159  2.0469  0.3081 -0.9564
    4bbb    H13  119   3.639   4.784   1.405 -2.5416  2.1068  1.6732
    4bbb    H25  120   3.773   4.747   0.984  0.7830 -1.4086  0.9218
    5bbb     N1  121   3.380   3.874   1.971 -0.1889 -0.4179 -0.1602
    5bbb     C1  122   3.346   3.892   2.119  0.0911  0.0442  0.2697
    5bbb     C2  123   3.509   3.812   1.958 -0.5005  0.4785 -0.2432
    5bbb     C3  124   3.293   3.762   2.188  0.3972 -0.3050 -0.4101
    5bbb     C4  125   3.254   3.776   2.340 -0.2126  0.2836  0.2357
    5bbb     C5  126   3.534   3.743   1.823  0.1073 -0.0794  0.5958
    5bbb     C6  127   3.684   3.698   1.802 -0.2182 -0.7467 -0.8466
    5bbb     C7  128   3.375   4.010   1.900 -0.1613  0.4800 -0.2595
    5bbb     C8  129   3.233   4.068   1.875  0.1366  0.1706 -0.0766
    5bbb     N2  130   3.247   4.207   1.839 -0.1110 -0.2325  0.0553
    5bbb     O1  131   3.269   3.874   2.410  0.5195  0.6340  0.8220
    5bbb     O2  132   3.771   3.771   1.753  0.6154 -0.2620 -0.3515
    5bbb     H1  133   3.426   3.944   2.170 -0.4422  0.6293  0.5164
    5bbb     H2  134   3.264   3.963   2.130  2.0479  2.7297 -1.2574
    5bbb     H3  135   3.517   3.740   2.040  0.5627 -0.0196 -0.7723
    5bbb     H4  136   3.584   3.888   1.983  0.8242 -0.6710 -0.6239
    5bbb     H5  137   3.207   3.730   2.127 -0.0131 -1.0177  0.5187
    5bbb     H6  138   3.359   3.675   2.187  0.1866 -0.4690 -0.2692
    5bbb     H7  139   3.508   3.809   1.739 -0.6448 -1.9184 -0.6692
    5bbb     H8  140   3.469   3.657   1.805 -0.8792  0.6637  0.4947
    5bbb     H9  141   3.428   4.001   1.804 -0.6329  0.1986 -0.4953
    5bbb    H10  142   3.435   4.081   1.958 -1.3768  2.2019 -1.0111
    5bbb    H11  143   3.174   4.051   1.967  0.4072 -0.1154  0.0456
    5bbb    H12  144   3.191   4.011   1.792  2.0328 -1.0041 -0.2981
    5bbb    H13  145   3.315   4.256   1.896  1.2146 -3.8501  1.8828
    5bbb    H25  146   3.308   3.808   1.939  0.4537 -0.5663 -1.3615
    6bbb     N1  147   3.961   5.016   2.917  0.0096  0.0475 -0.3148
    6bbb     C1  148   4.073   5.115   2.917 -0.5070 -0.0976  0.6779
    6bbb     C2  149   4.018   4.876   2.903  1.1110 -0.3043  0.3765
    6bbb     C3  150   4.045   5.262   2.952  0.3949 -0.4532 -0.1702
    6bbb     C4  151   4.169   5.346   2.928  0.0759 -0.4133 -0.7233
    6bbb     C5  152   4.107   4.830   3.022 -0.0899  0.1992  0.1551
    6bbb     C6  153   4.193   4.713   3.005  0.1178  0.2040  0.5347
    6bbb     C7  154   3.865   5.044   2.804  0.2805  0.2902  0.4965
    6bbb     C8  155   3.745   4.949   2.810  0.5042 -0.0734 -0.0376
    6bbb     N2  156   3.663   4.978   2.688  0.4989  0.3123 -0.5789
    6bbb     O1  157   4.264   5.320   2.859  0.1458  0.2385 -0.0662
    6bbb     O2  158   4.215   4.664   2.896 -0.0981 -0.3103 -0.0668
    6bbb     H1  159   4.154   5.079   2.981  0.8466  1.9489  0.2510
    6bbb     H2  160   4.104   5.124   2.813 -1.3985  0.2903  0.4385
    6bbb     H3  161   4.066   4.880   2.804 -0.5854 -0.4175 -0.4799
    6bbb     H4  162   3.936   4.804   2.893  0.1424  0.7001  0.9143
    6bbb     H5  163   3.965   5.304   2.890  1.0016  1.7051  0.4255
    6bbb     H6  164   4.018   5.273   3.058  0.6903  1.7371 -0.2727
    6bbb     H7  165   4.041   4.819   3.109  1.8352 -1.1718  1.5100
    6bbb     H8  166   4.168   4.915   3.056  1.0191 -0.2005 -0.7640
    6bbb     H9  167   3.914   5.031   2.708  1.0659  1.5014  0.7223
    6bbb    H10  168   3.824   5.144   2.814 -1.7864 -0.4730  0.3344
    6bbb    H11  169   3.691   4.960   2.905 -0.7036 -2.0331 -0.4519
    6bbb    H12  170   3.777   4.845   2.800 -1.7871 -0.7424 -1.1636
    6bbb    H13  171   3.633   4.907   2.623  0.1990 -1.4071  1.3179
    6bbb    H25  172   3.911   5.035   3.005  0.1471  0.4402 -0.3182
    7bbb     N1  173   2.786   5.768   2.944 -0.2220  0.0230 -0.3997
    7bbb     C1  174   2.807   5.908   2.897 -0.6117 -0.6518 -0.3227
    7bbb     C2  175   2.757   5.749   3.099 -0.2721 -0.2436 -0.6794
    7bbb     C3  176   2.938   5.975   2.952 -0.7761 -0.4204  0.3472
    7bbb     C4  177   2.950   6.125   2.917  0.1366  0.2213 -0.1958
    7bbb     C5  178   2.638   5.823   3.149 -0.0128 -0.1384  0.0448
    7bbb     C6  179   2.614   5.780   3.292 -0.1161  0.0697 -0.0698
    7bbb     C7  180   2.900   5.670   2.912  0.1509 -0.0606 -0.0094
    7bbb     C8  181   2.918   5.622   2.766  0.1716 -0.3051 -0.7293
    7bbb     N2  182   3.034   5.534   2.739  0.1293 -0.1751 -0.6447
    7bbb     O1  183   2.898   6.177   2.824 -0.3795 -0.0069  0.2808
    7bbb     O2  184   2.669   5.684   3.337  0.3326 -0.3336 -0.7408
    7bbb     H1  185   2.820   5.898   2.789 -0.3947 -1.1751 -0.2486
    7bbb     H2  186   2.714   5.960   2.923  0.5672  0.1586  2.6419
    7bbb     H3  187   2.849   5.790   3.140  0.4256 -1.4652 -0.9840
    7bbb     H4  188   2.749   5.645   3.132  1.2934  0.1856  1.2750
    7bbb     H5  189   2.942   5.964   3.061 -1.5914 -0.6028  0.3635
    7bbb     H6  190   3.034   5.933   2.919  0.6227  1.8910  1.2668
    7bbb     H7  191   2.544   5.806   3.094 -1.5231  0.9515  2.1128
    7bbb     H8  192   2.662   5.930   3.138  0.6324 -0.3776 -0.9909
    7bbb     H9  193   2.871   5.584   2.973 -1.1548  0.1350 -0.3132
    7bbb    H10  194   2.998   5.706   2.942  1.9027 -2.2362 -2.6172
    7bbb    H11  195   2.940   5.707   2.700 -3.2149  0.5845 -0.8785
    7bbb    H12  196   2.824   5.579   2.729  0.1504  1.2421 -2.6618
    7bbb    H13  197   3.071   5.483   2.819  1.2962  0.8877 -0.4770
    7bbb    H25  198   2.692   5.743   2.907 -2.5796  2.4573  3.2672
    8bbb     N1  199   2.223   5.478   0.816 -0.5619 -0.5727  0.1502
    8bbb     C1  200   2.157   5.417   0.702 -0.1056 -0.1957  0.5005
    8bbb     C2  201   2.277   5.618   0.785 -0.1618 -0.0296  0.0344
    8bbb     C3  202   2.236   5.391   0.568 -0.1349  0.0304  0.3915
    8bbb     C4  203   2.156   5.295   0.480  0.5057  0.1327  0.3914
    8bbb     C5  204   2.178   5.727   0.748 -0.4690  0.3878  0.3642
    8bbb     C6  205   2.252   5.842   0.681  0.3047 -0.0139 -0.7162
    8bbb     C7  206   2.345   5.394   0.867 -0.6287 -0.0337  0.7893
    8bbb     C8  207   2.312   5.248   0.899  0.1846 -0.1135  0.6751
    8bbb     N2  208   2.243   5.246   1.035  0.0534  0.8161  0.3874
    8bbb     O1  209   2.065   5.231   0.528 -0.1522  0.2740  0.7445
    8bbb     O2  210   2.277   5.859   0.563 -0.0592 -0.5244 -0.0878
    8bbb     H1  211   2.105   5.327   0.737 -1.5603  0.2548 -0.4014
    8bbb     H2  212   2.073   5.483   0.680  0.0788  1.0602  3.2104
    8bbb     H3  213   2.352   5.616   0.705  1.5391 -2.2214  1.5636
    8bbb     H4  214   2.333   5.654   0.871 -1.3758  2.2742 -0.0710
    8bbb     H5  215   2.236   5.489   0.520 -1.7015  0.0422  0.3676
    8bbb     H6  216   2.337   5.350   0.574  0.1246  0.2701 -1.6041
    8bbb     H7  217   2.126   5.767   0.836 -3.9270  0.4340 -1.5341
    8bbb     H8  218   2.108   5.688   0.673  1.0475  0.1162 -0.9688
    8bbb     H9  219   2.389   5.441   0.956  3.0247 -2.8010  0.7030
    8bbb    H10  220   2.416   5.390   0.784 -3.2605 -1.1185 -1.5558
    8bbb    H11  221   2.405   5.193   0.920  0.7556  1.2379  1.8788
    8bbb    H12  222   2.251   5.201   0.822 -0.0728 -0.5919  1.1659
    8bbb    H13  223   2.212   5.329   1.084  0.5621 -0.0159  2.2059
    8bbb    H25  224   2.161   5.487   0.898 -0.5502 -2.6188  0.4540
    9bbb     N1  225   1.586   5.528   1.934  0.9171  0.2390 -0.2901
    9bbb     C1  226   1.515   5.530   2.072  0.2580 -0.2693 -0.2534
    9bbb     C2  227   1.482   5.492   1.824 -0.0320 -0.3592 -0.3750
    9bbb     C3  228   1.424   5.408   2.112 -0.2659  0.5034 -0.0418
    9bbb     C4  229   1.350   5.416   2.243  0.4860  0.4242 -0.1390
    9bbb     C5  230   1.531   5.508   1.682  0.8531  0.6142 -0.0116
    9bbb     C6  231   1.416   5.510   1.584 -0.9059  0.4349 -0.3655
    9bbb     C7  232   1.699   5.425   1.939  0.0403 -0.4043  0.1224
    9bbb     C8  233   1.822   5.473   1.875 -1.3080 -0.0546 -0.2248
    9bbb     N2  234   1.918   5.366   1.841 -0.3879 -0.3073 -0.1831
    9bbb     O1  235   1.372   5.503   2.323 -0.2038  0.1388  0.0896
    9bbb     O2  236   1.305   5.556   1.611  0.0414  0.9067  0.2996
    9bbb     H1  237   1.587   5.538   2.153 -0.0234  1.4173 -0.1368
    9bbb     H2  238   1.463   5.626   2.075  0.3230 -0.2260 -0.4646
    9bbb     H3  239   1.396   5.556   1.844  0.7319  0.6296 -0.1754
    9bbb     H4  240   1.458   5.387   1.836 -0.4168 -0.1766  0.5951
    9bbb     H5  241   1.341   5.414   2.042 -0.2985  0.3715 -0.0140
    9bbb     H6  242   1.476   5.312   2.116 -1.4034 -0.1971 -1.4367
    9bbb     H7  243   1.601   5.428   1.654  2.2837  1.7037  0.3740
    9bbb     H8  244   1.585   5.602   1.673  0.2784  0.9513 -0.0134
    9bbb     H9  245   1.657   5.339   1.887  1.0550 -1.7196  1.3923
    9bbb    H10  246   1.708   5.388   2.041  0.3635 -2.4909 -0.6074
    9bbb    H11  247   1.874   5.547   1.936  1.8688 -0.5176 -2.1528
    9bbb    H12  248   1.787   5.525   1.785 -0.6884 -1.7980 -1.5374
    9bbb    H13  249   1.989   5.329   1.904 -0.8802  0.3316  0.7750
    9bbb    H25  250   1.633   5.618   1.916  2.0374 -0.7497 -2.7201
   10bbb     N1  251   4.313   4.242   0.942  0.0617  0.2502 -0.2248
   10bbb     C1  252   4.359   4.121   0.866  0.5858  0.1719 -0.2836
   10bbb     C2  253   4.423   4.348   0.920 -0.4602  0.0711  0.5861
   10bbb     C3  254   4.382   4.140   0.711  0.1746  0.3783  0.7840
   10bbb     C4  255   4.445   4.016   0.642  0.6934  0.2434  0.9223
   10bbb     C5  256   4.569   4.305   0.959 -0.7366 -0.2120 -0.0864
   10bbb     C6  257   4.640   4.427   1.012 -0.1096 -0.1531 -0.1907
   10bbb     C7  258   4.279   4.207   1.084  0.8785 -0.0151  0.2574
   10bbb     C8  259   4.244   4.322   1.173  1.0426  0.2394 -0.1335
   10bbb     N2  260   4.116   4.379   1.132 -0.5466 -0.3812  0.0423
   10bbb     O1  261   4.402   3.900   0.652 -0.1916 -0.1186 -0.3716
   10bbb     O2  262   4.586   4.491   1.103  0.0391 -0.1710  0.4311
   10bbb     H1  263   4.449   4.083   0.914 -0.4465  2.1013  3.6239
   10bbb     H2  264   4.280   4.046   0.872 -2.0970  2.5679 -2.5620
   10bbb     H3  265   4.393   4.436   0.977 -0.5416  1.3204 -1.2846
   10bbb     H4  266   4.425   4.373   0.814  0.8354 -0.5305  0.4480
   10bbb     H5  267   4.289   4.153   0.654  1.1237 -0.7847 -1.1230
   10bbb     H6  268   4.446   4.225   0.684  0.8165 -0.2386  0.3337
   10bbb     H7  269   4.615   4.255   0.872  0.4069 -1.7507  1.3366
   10bbb     H8  270   4.575   4.230   1.038 -0.1739  1.2721  1.3283
   10bbb     H9  271   4.364   4.146   1.117 -0.3694 -0.5511  2.6872
   10bbb    H10  272   4.193   4.140   1.076 -0.0009  0.9131  1.4494
   10bbb    H11  273   4.318   4.402   1.181 -1.4108  2.5099  1.5564
   10bbb    H12  274   4.229   4.291   1.277  1.0125  1.1490  0.1376
   10bbb    H13  275   4.024   4.346   1.155 -2.2730  3.0215 -1.2985
   10bbb    H25  276   4.228   4.276   0.893 -1.1026 -0.3484  1.3108
   11bbb     N1  277   4.172   5.508   0.623 -0.0227  0.6198 -0.1249
   11bbb     C1  278   4.261   5.498   0.502 -0.3404 -0.0321 -0.0210
   11bbb     C2  279   4.253   5.558   0.738  0.4637  0.0968  0.1937
   11bbb     C3  280   4.198   5.476   0.365  0.2719  0.0398  0.1449
   11bbb     C4  281   4.286   5.474   0.243  0.2121  0.3562  0.7313
   11bbb     C5  282   4.274   5.708   0.738  0.0337  0.0871  0.7309
   11bbb     C6  283   4.307   5.748   0.886 -0.2776  0.4864  0.9681
   11bbb     C7  284   4.134   5.360   0.657 -0.3796 -1.2191  0.1885
   11bbb     C8  285   4.009   5.342   0.753  0.4320  0.4942  0.0995
   11bbb     N2  286   3.991   5.189   0.769  0.0105  0.2892  0.1098
   11bbb     O1  287   4.406   5.447   0.244  0.0211  0.2869 -0.6704
   11bbb     O2  288   4.387   5.691   0.960  0.1805 -0.2079 -0.7834
   11bbb     H1  289   4.307   5.597   0.505  1.4791 -0.6087 -3.5351
   11bbb     H2  290   4.338   5.429   0.537 -0.5377  0.8261  2.2890
   11bbb     H3  291   4.342   5.499   0.761  0.4329 -0.3131 -0.6880
   11bbb     H4  292   4.193   5.537   0.827  0.0414 -0.7820 -0.2795
   11bbb     H5  293   4.149   5.379   0.366  1.4317 -0.6188 -1.6650
   11bbb     H6  294   4.116   5.545   0.342 -1.1375 -0.9923  1.8340
   11bbb     H7  295   4.178   5.749   0.705 -0.3773 -0.3163  1.3790
   11bbb     H8  296   4.357   5.739   0.674 -1.4168  1.7903 -0.4281
   11bbb     H9  297   4.226   5.319   0.698  0.9799  0.3273 -1.1420
   11bbb    H10  298   4.112   5.325   0.557 -1.2391  1.9227 -0.8492
   11bbb    H11  299   3.922   5.379   0.698  0.1439  1.4845  1.1834
   11bbb    H12  300   4.029   5.397   0.846 -1.7419  0.9619  0.3364
   11bbb    H13  301   3.945   5.136   0.696 -1.9812  0.5721  1.0923
   11bbb    H25  302   4.097   5.569   0.588  0.1711  0.0448 -1.6228
   12bbb     N1  303   3.199   3.445   2.668 -0.3825  0.4246 -0.1819
   12bbb     C1  304   3.330   3.418   2.593 -0.3740 -0.2444 -0.4034
   12bbb     C2  305   3.147   3.309   2.722 -0.4455 -0.4157 -0.2903
   12bbb     C3  306   3.456   3.455   2.677  0.4094  0.1071  0.2766
   12bbb     C4  307   3.482   3.373   2.794  0.0734  0.1743 -0.0885
   12bbb     C5  308   3.042   3.326   2.830 -0.1710 -0.2816  0.3531
   12bbb     C6  309   2.959   3.207   2.883 -0.1468 -0.0007 -0.0146
   12bbb     C7  310   3.094   3.517   2.582 -1.1094 -0.0807 -0.7470
   12bbb     C8  311   3.139   3.663   2.533  0.4989  0.3507  0.1012
   12bbb     N2  312   3.204   3.659   2.396  0.1870 -0.4203 -0.2600
   12bbb     O1  313   3.430   3.393   2.904  0.4264  0.3428 -0.7348
   12bbb     O2  314   2.992   3.090   2.865 -0.3857  0.0800  0.8424
   12bbb     H1  315   3.317   3.311   2.580 -0.4601 -0.2620 -0.1815
   12bbb     H2  316   3.333   3.476   2.500 -0.6715  0.7909  0.2178
   12bbb     H3  317   3.235   3.256   2.758 -0.7190  0.9976  2.7857
   12bbb     H4  318   3.091   3.260   2.642 -3.6785  1.3599  0.6590
   12bbb     H5  319   3.544   3.451   2.611  2.1355  0.2239  2.4576
   12bbb     H6  320   3.460   3.555   2.722 -0.1846 -0.7099  2.2491
   12bbb     H7  321   2.971   3.400   2.791 -0.3961 -0.1035  1.0799
   12bbb     H8  322   3.094   3.377   2.912 -1.3682 -0.4245  1.2363
   12bbb     H9  323   3.001   3.529   2.638  0.2277  0.4793  1.4988
   12bbb    H10  324   3.075   3.447   2.500 -0.3830 -1.0507 -0.1040
   12bbb    H11  325   3.213   3.708   2.601  2.2374 -1.1608 -0.7251
   12bbb    H12  326   3.052   3.730   2.528  0.7863  0.6711 -0.9011
   12bbb    H13  327   3.176   3.588   2.330  0.6108 -0.1705 -0.7105
   12bbb    H25  328   3.232   3.515   2.735 -2.0980  4.7235 -3.3198
   13bbb     N1  329   4.002   3.396   1.664 -0.7937  1.4308 -0.6803
   13bbb     C1  330   4.115   3.501   1.646  0.4150  0.4419  0.1060
   13bbb     C2  331   3.986   3.310   1.542 -0.0137 -0.2296 -0.3092
   13bbb     C3  332   4.256   3.436   1.660  0.2548 -0.4790  0.5457
   13bbb     C4  333   4.367   3.542   1.673 -0.4435  0.2286  0.1347
   13bbb     C5  334   3.907   3.176   1.567 -0.5466  0.0991  0.2410
   13bbb     C6  335   3.902   3.084   1.447 -0.3919 -0.0748 -0.3836
   13bbb     C7  336   3.873   3.458   1.705  0.5664 -0.1276  0.5572
   13bbb     C8  337   3.846   3.510   1.843  0.3934 -0.8586  0.3550
   13bbb     N2  338   3.710   3.569   1.854  0.5314 -0.2384  0.2866
   13bbb     O1  339   4.347   3.660   1.654  0.0348 -0.2426  0.4039
   13bbb     O2  340   3.900   3.131   1.337 -0.0220 -0.5263  0.5814
   13bbb     H1  341   4.097   3.552   1.551  0.7775 -1.8541 -1.2645
   13bbb     H2  342   4.092   3.568   1.729 -0.5548 -0.8880  0.9419
   13bbb     H3  343   4.087   3.287   1.507  0.2130  1.0200 -0.5326
   13bbb     H4  344   3.933   3.370   1.468 -2.1032 -1.4844  0.0840
   13bbb     H5  345   4.245   3.383   1.755 -0.3231 -1.7959 -0.2294
   13bbb     H6  346   4.276   3.366   1.578 -2.7368  0.0038 -0.7609
   13bbb     H7  347   3.806   3.206   1.595 -1.6757 -2.3818 -0.9577
   13bbb     H8  348   3.943   3.119   1.654 -4.8925  0.6830  2.6974
   13bbb     H9  349   3.800   3.380   1.681 -0.4989  1.1610 -0.5564
   13bbb    H10  350   3.847   3.540   1.638 -1.0952  2.0406  3.6733
   13bbb    H11  351   3.919   3.583   1.880 -1.6483  0.3154  2.3175
   13bbb    H12  352   3.852   3.422   1.908  0.3737 -0.6888  0.5888
   13bbb    H13  353   3.631   3.512   1.879 -0.3279 -0.2829 -2.2054
   13bbb    H25  354   4.030   3.332   1.739  0.3348  0.3587 -1.9873
   14bbb     N1  355   4.376   5.769   3.144 -0.1019 -0.3565 -0.0875
   14bbb     C1  356   4.332   5.844   3.265  0.2276 -0.4392  0.3103
   14bbb     C2  357   4.426   5.868   3.034 -0.2488 -0.1856  0.0626
   14bbb     C3  358   4.269   5.762   3.384  0.0066 -0.5791 -0.2991
   14bbb     C4  359   4.358   5.654   3.441  0.0044  0.7819  0.5194
   14bbb     C5  360   4.322   5.954   2.978  0.0725  0.6686  0.1927
   14bbb     C6  361   4.375   6.068   2.893 -0.3601 -1.1727  0.1553
   14bbb     C7  362   4.265   5.678   3.093 -0.7642 -0.3573  0.1714
   14bbb     C8  363   4.306   5.539   3.033  0.2768  0.1527  0.0957
   14bbb     N2  364   4.182   5.457   3.019  0.7490  0.0566  0.3143
   14bbb     O1  365   4.421   5.572   3.373  0.2640 -0.2532  0.2859
   14bbb     O2  366   4.475   6.133   2.917 -0.1685 -0.3530 -0.0294
   14bbb     H1  367   4.407   5.913   3.304 -0.1214 -0.4802  1.0785
   14bbb     H2  368   4.256   5.915   3.232  0.9437  0.7535  1.1210
   14bbb     H3  369   4.464   5.806   2.953  0.2023  0.5203 -0.2715
   14bbb     H4  370   4.508   5.924   3.080 -1.4801  0.9066  1.0040
   14bbb     H5  371   4.240   5.833   3.463  1.1007 -1.3246  0.8213
   14bbb     H6  372   4.175   5.711   3.361  0.5221 -1.2250 -1.0158
   14bbb     H7  373   4.259   5.996   3.057  0.4583 -0.3289  1.0431
   14bbb     H8  374   4.254   5.901   2.910  0.5783  0.6364 -0.2956
   14bbb     H9  375   4.198   5.732   3.027  0.3673  0.1337 -0.6039
   14bbb    H10  376   4.205   5.664   3.183 -1.9320 -1.1719 -0.7145
   14bbb    H11  377   4.382   5.485   3.091  0.1839 -1.1539 -0.9552
   14bbb    H12  378   4.351   5.556   2.935  1.5900  2.1558  0.9831
   14bbb    H13  379   4.101   5.478   3.076  0.4150  0.0295 -0.1470
   14bbb    H25  380   4.454   5.713   3.178 -0.0600 -0.8002 -0.8806
   15bbb     N1  381   4.603   4.595   3.053 -0.5254  0.1849  0.1852
   15bbb     C1  382   4.725   4.678   3.092  0.5225  0.7402 -0.1399
   15bbb     C2  383   4.570   4.615   2.903 -0.5201  0.7470 -0.5099
   15bbb     C3  384   4.793   4.613   3.217 -0.1601 -0.8191 -0.2873
   15bbb     C4  385   4.875   4.497   3.165 -0.2968 -0.3161 -0.2559
   15bbb     C5  386   4.654   4.520   2.816  0.1208  0.1080 -1.0808
   15bbb     C6  387   4.611   4.375   2.817 -0.0661  0.0337  0.6611
   15bbb     C7  388   4.497   4.654   3.143 -0.4552 -0.4786  0.3620
   15bbb     C8  389   4.358   4.582   3.140 -0.3039  0.6310  0.4883
   15bbb     N2  390   4.251   4.674   3.122  0.5669 -0.0873 -0.4509
   15bbb     O1  391   4.918   4.485   3.055 -0.1110 -0.5268  0.0858
   15bbb     O2  392   4.499   4.337   2.833 -0.0562  0.7281  0.2359
   15bbb     H1  393   4.789   4.678   3.003 -0.5601 -1.3822 -0.9999
   15bbb     H2  394   4.697   4.783   3.094  0.5659  0.8085 -1.8536
   15bbb     H3  395   4.588   4.717   2.871  0.3914  0.4864 -0.8799
   15bbb     H4  396   4.467   4.589   2.880  0.3752 -2.1376 -1.7870
   15bbb     H5  397   4.858   4.682   3.272 -0.1707 -0.5935 -0.5577
   15bbb     H6  398   4.718   4.572   3.286  1.7785 -0.7517  1.9738
   15bbb     H7  399   4.762   4.531   2.825  0.0445  1.0379 -1.1631
   15bbb     H8  400   4.633   4.553   2.714 -0.3199  0.2779 -0.9374
   15bbb     H9  401   4.481   4.755   3.106  1.2915  0.2373  1.4400
   15bbb    H10  402   4.540   4.658   3.243  1.2285 -1.4552 -0.2878
   15bbb    H11  403   4.346   4.529   3.235 -0.3779 -0.1828  0.0442
   15bbb    H12  404   4.353   4.509   3.058 -1.8249 -0.3229  1.3733
   15bbb    H13  405   4.222   4.720   3.207  0.5875  0.4042 -0.7073
   15bbb    H25  406   4.617   4.496   3.079 -0.3552  1.1664  4.5638
   16bbb     N1  407   3.236   6.373   2.900 -0.2699 -0.4411 -0.0082
   16bbb     C1  408   3.375   6.424   2.940 -1.0173 -0.0856  0.5345
   16bbb     C2  409   3.190   6.429   2.763  0.0761 -0.0489  0.2392
   16bbb     C3  410   3.468   6.332   3.018 -0.2077  0.1862 -0.2348
   16bbb     C4  411   3.429   6.318   3.165 -0.9668  0.6211  0.5352
   16bbb     C5  412   3.198   6.580   2.734 -0.4172 -0.1684 -0.1141
   16bbb     C6  413   3.160   6.608   2.589  0.1394  0.1767 -0.7460
   16bbb     C7  414   3.142   6.426   3.011  0.2597  0.6815 -0.1103
   16bbb     C8  415   3.008   6.355   3.012  0.0224  0.6848 -0.7518
   16bbb     N2  416   3.019   6.205   3.005  0.5702  0.2213 -0.1226
   16bbb     O1  417   3.321   6.272   3.198 -0.7327 -0.2712  0.1236
   16bbb     O2  418   3.192   6.541   2.497  0.1798 -0.3763  0.6507
   16bbb     H1  419   3.417   6.460   2.846 -2.6689  2.0909  0.5599
   16bbb     H2  420   3.353   6.515   2.995 -0.8459  0.4334 -0.2444
   16bbb     H3  421   3.091   6.385   2.749 -0.2445  0.5331  0.6206
   16bbb     H4  422   3.247   6.379   2.685 -0.6067 -0.2925 -0.1112
   16bbb     H5  423   3.467   6.232   2.972 -0.0426  0.6075 -1.1786
   16bbb     H6  424   3.570   6.371   3.007  0.4163 -0.4328  2.6808
   16bbb     H7  425   3.298   6.623   2.738 -0.2532 -0.5694  0.2759
   16bbb     H8  426   3.127   6.632   2.800 -2.9322 -0.0541 -2.7103
   16bbb     H9  427   3.126   6.534   3.013 -2.2491  0.3650  1.0343
   16bbb    H10  428   3.183   6.396   3.108 -1.5057 -1.4352  0.0404
   16bbb    H11  429   2.946   6.392   2.929 -0.8041  0.3907 -0.2752
   16bbb    H12  430   2.950   6.377   3.102 -1.3724  0.2390 -1.5090
   16bbb    H13  431   3.059   6.152   3.082  0.3086  1.3942  0.8593
   16bbb    H25  432   3.243   6.270   2.904 -0.6718 -0.4642  4.0855
   17bbb     N1  433   2.384   5.897   3.715  0.0125 -0.5977  0.5016
   17bbb     C1  434   2.261   5.813   3.739  0.2166  0.0593  0.2697
   17bbb     C2  435   2.371   6.035   3.784 -0.5238  0.5675  0.4347
   17bbb     C3  436   2.279   5.660   3.763 -0.5860  0.7500 -0.2905
   17bbb     C4  437   2.335   5.625   3.905  0.3750 -0.2078 -0.1020
   17bbb     C5  438   2.371   6.035   3.943  1.1401 -0.8879  0.7526
   17bbb     C6  439   2.329   6.169   4.009  0.2922  0.1565  0.9097
   17bbb     C7  440   2.410   5.915   3.570 -0.5634  0.4138 -0.3541
   17bbb     C8  441   2.536   5.846   3.518 -0.1718  0.0500 -0.5345
   17bbb     N2  442   2.543   5.868   3.373  0.0441  0.2673  0.7785
   17bbb     O1  443   2.287   5.680   4.004 -0.3072 -0.8738  1.1099
   17bbb     O2  444   2.267   6.256   3.949  0.3870 -0.5870 -1.1834
   17bbb     H1  445   2.201   5.866   3.814 -2.1338 -0.5868 -1.0256
   17bbb     H2  446   2.204   5.835   3.648  0.6161  2.6010  0.5501
   17bbb     H3  447   2.281   6.082   3.742 -1.0854 -1.4160 -0.7119
   17bbb     H4  448   2.456   6.098   3.758 -1.0134  0.4725 -1.5730
   17bbb     H5  449   2.182   5.614   3.741 -0.0524  0.2024 -1.5931
   17bbb     H6  450   2.350   5.619   3.690 -2.5901  1.7267 -2.9280
   17bbb     H7  451   2.466   6.000   3.985  0.7024 -0.5550  2.0654
   17bbb     H8  452   2.300   5.961   3.982  0.5440 -1.1395 -0.7190
   17bbb     H9  453   2.431   6.020   3.551 -0.8858  0.1068 -2.6088
   17bbb    H10  454   2.324   5.879   3.513 -0.8203  1.3488 -0.5731
   17bbb    H11  455   2.522   5.739   3.537 -1.6473 -0.0516 -1.9240
   17bbb    H12  456   2.622   5.876   3.578 -0.2729  0.3323 -0.5288
   17bbb    H13  457   2.500   5.949   3.331  2.5241  1.6376  0.7007
   17bbb    H25  458   2.469   5.847   3.745 -0.1064 -1.0357  0.1084
   18bbb     N1  459   2.210   5.002   0.095 -0.0643  0.5025  0.1610
   18bbb     C1  460   2.323   4.898   0.076  0.6569 -0.0646 -0.4754
   18bbb     C2  461   2.182   5.063  -0.036 -0.1736 -0.2539 -0.1739
   18bbb     C3  462   2.306   4.787  -0.032 -0.2538 -0.3034  0.1487
   18bbb     C4  463   2.422   4.691  -0.030 -0.1799 -0.2053  0.2859
   18bbb     C5  464   2.033   5.047  -0.080 -0.2847  0.5905  0.2627
   18bbb     C6  465   2.007   5.073  -0.224  0.6538  0.0285 -0.0299
   18bbb     C7  466   2.257   5.105   0.202  0.5910 -0.2800  0.1091
   18bbb     C8  467   2.149   5.207   0.245  0.0928  0.2938 -0.1526
   18bbb     N2  468   2.195   5.296   0.344  0.4903 -0.0321 -0.1391
   18bbb     O1  469   2.536   4.722  -0.003 -0.4884 -0.1761 -1.0070
   18bbb     O2  470   2.084   5.131  -0.296 -0.0605  0.3154 -0.0534
   18bbb     H1  471   2.420   4.945   0.061  0.5992  0.8424  1.6397
   18bbb     H2  472   2.323   4.852   0.176 -0.4438 -0.0713 -0.4682
   18bbb     H3  473   2.245   5.009  -0.107  0.5970  0.8183 -0.3305
   18bbb     H4  474   2.214   5.167  -0.038  1.7491 -0.8219 -0.5437
   18bbb     H5  475   2.215   4.727  -0.021 -0.8633  0.6511  0.4743
   18bbb     H6  476   2.308   4.836  -0.130 -1.6003 -0.9826 -0.2466
   18bbb     H7  477   1.976   5.109  -0.010  1.9624  0.9679  1.8983
   18bbb     H8  478   1.989   4.949  -0.056  0.5803  0.5376  1.7728
   18bbb     H9  479   2.340   5.164   0.161  0.1991  0.3268  0.1744
   18bbb    H10  480   2.299   5.043   0.281  1.7654 -2.1791 -1.9012
   18bbb    H11  481   2.069   5.144   0.285  0.3574 -0.0255 -0.1252
   18bbb    H12  482   2.107   5.260   0.158 -0.2217  0.4568  0.0998
   18bbb    H13  483   2.266   5.363   0.319  0.2569  1.0963  1.9500
   18bbb    H25  484   2.129   4.951   0.133  1.0565  0.4506  2.7030
   19bbb     N1  485   2.517   6.237   0.741  0.1099 -0.1671 -0.2272
   19bbb     C1  486   2.478   6.348   0.834 -0.0391 -0.0802 -0.2019
   19bbb     C2  487   2.497   6.274   0.597 -0.8177 -0.5284  0.1561
   19bbb     C3  488   2.560   6.475   0.823 -0.8256 -0.0705  0.2241
   19bbb     C4  489   2.474   6.598   0.854 -0.6576  0.0551  0.1086
   19bbb     C5  490   2.555   6.174   0.481 -0.3846 -0.1028 -0.1630
   19bbb     C6  491   2.550   6.232   0.340  0.0883 -0.7294 -0.2474
   19bbb     C7  492   2.444   6.114   0.781  0.0644  0.2878  0.5814
   19bbb     C8  493   2.297   6.079   0.752 -0.1806  0.1853  0.3661
   19bbb     N2  494   2.265   5.940   0.779  0.3300 -0.6664 -0.0324
   19bbb     O1  495   2.355   6.603   0.839  0.3069 -0.4801 -0.4391
   19bbb     O2  496   2.498   6.338   0.316  0.1885  0.9772 -0.4027
   19bbb     H1  497   2.373   6.367   0.811  0.1693  1.9826  0.3440
   19bbb     H2  498   2.483   6.310   0.936 -0.3114 -1.3241 -0.6361
   19bbb     H3  499   2.549   6.370   0.593  0.3120 -0.8515  3.6789
   19bbb     H4  500   2.393   6.300   0.579 -0.7215 -0.0200  0.3153
   19bbb     H5  501   2.645   6.463   0.891  0.4994 -0.7684 -1.4659
   19bbb     H6  502   2.602   6.496   0.724 -0.5084  1.0279  0.5781
   19bbb     H7  503   2.505   6.077   0.482  1.6123 -1.1728  0.9098
   19bbb     H8  504   2.656   6.143   0.508  0.6328  1.5865 -1.7977
   19bbb     H9  505   2.464   6.109   0.888  4.0334  0.0312 -0.0094
   19bbb    H10  506   2.498   6.027   0.742 -0.8089 -0.8205  1.7767
   19bbb    H11  507   2.281   6.089   0.644  1.6064  0.2426  0.0841
   19bbb    H12  508   2.237   6.138   0.822  2.3111  0.9662  1.9463
   19bbb    H13  509   2.264   5.909   0.876  0.5597 -1.2204 -0.2045
   19bbb    H25  510   2.616   6.223   0.764  0.2582  2.6738  1.3102
   20bbb     N1  511   0.972   5.223   2.525  0.2992  1.1197 -0.0715
   20bbb     C1  512   0.876   5.096   2.523 -0.1828 -0.2801 -0.7542
   20bbb     C2  513   0.905   5.355   2.566  0.0456  0.3809 -0.8610
   20bbb     C3  514   0.947   4.961   2.543 -0.3122 -0.5349  0.1854
   20bbb     C4  515   0.849   4.848   2.569 -0.2856  0.3732  0.2866
   20bbb     C5  516   0.818   5.427   2.462  0.0703  0.1118  0.3695
   20bbb     C6  517   0.738   5.548   2.522  0.2375 -0.1501  0.2020
   20bbb     C7  518   1.062   5.223   2.395  0.1336 -0.4614 -0.2232
   20bbb     C8  519   1.181   5.323   2.397 -0.3019 -0.2760  0.1440
   20bbb     N2  520   1.253   5.320   2.270  0.2453  0.0933  0.1280
   20bbb     O1  521   0.736   4.866   2.610  0.0666 -0.5242 -0.0565
   20bbb     O2  522   0.701   5.556   2.638 -0.3470 -0.0984 -0.0470
   20bbb     H1  523   0.813   5.109   2.611  2.5285  1.4472  1.0833
   20bbb     H2  524   0.815   5.091   2.432 -1.3271 -2.8838  0.0625
   20bbb     H3  525   0.983   5.424   2.600 -1.8907  2.2004  0.1492
   20bbb     H4  526   0.839   5.330   2.649  0.7620  2.4881  0.4314
   20bbb     H5  527   1.002   4.941   2.451 -2.8315  0.7933 -1.7188
   20bbb     H6  528   1.015   4.940   2.626 -0.2704 -1.3185 -0.0364
   20bbb     H7  529   0.747   5.364   2.407 -1.1046  0.7843  1.0720
   20bbb     H8  530   0.886   5.477   2.391 -0.1628  1.4299  1.0370
   20bbb     H9  531   0.999   5.254   2.311 -0.9680 -0.5238  0.5584
   20bbb    H10  532   1.088   5.120   2.370  1.0125 -0.0187 -1.1971
   20bbb    H11  533   1.244   5.310   2.486 -0.3344 -0.6600  0.1124
   20bbb    H12  534   1.143   5.423   2.421 -1.3059 -0.9665  1.5924
   20bbb    H13  535   1.237   5.250   2.198  2.3272  1.0533 -1.3855
   20bbb    H25  536   1.035   5.205   2.604 -1.3319  0.2317  1.0903
   21bbb     N1  537   1.275   5.274   1.158 -0.3482 -0.6487 -0.1934
   21bbb     C1  538   1.155   5.361   1.135  0.7537 -0.2762 -0.0301
   21bbb     C2  539   1.238   5.135   1.218  0.3055  0.1139  1.4927
   21bbb     C3  540   1.182   5.487   1.048  0.2424  0.5840 -0.4772
   21bbb     C4  541   1.089   5.599   1.085  0.7014  0.0412 -0.6620
   21bbb     C5  542   1.122   5.051   1.154 -0.0116 -0.0130 -0.0033
   21bbb     C6  543   1.110   4.913   1.217 -0.2226 -0.3737  0.0746
   21bbb     C7  544   1.383   5.334   1.251  0.3034  0.1044  0.2831
   21bbb     C8  545   1.331   5.415   1.369 -0.1269 -0.2221 -0.5301
   21bbb     N2  546   1.440   5.458   1.457 -0.1850 -0.0224 -1.0452
   21bbb     O1  547   1.041   5.618   1.195  0.0255  0.5363  0.3017
   21bbb     O2  548   1.204   4.849   1.263  0.0765 -0.8727 -0.1697
   21bbb     H1  549   1.073   5.300   1.099  1.1239 -0.8020 -0.0019
   21bbb     H2  550   1.124   5.388   1.236 -0.4739 -0.6855 -0.2912
   21bbb     H3  551   1.214   5.162   1.321 -0.3718  2.8697  0.6939
   21bbb     H4  552   1.331   5.080   1.202  2.2999  3.4993  0.3616
   21bbb     H5  553   1.285   5.525   1.039 -0.3523  1.8815 -2.4085
   21bbb     H6  554   1.153   5.460   0.946 -0.8367  0.8274 -0.2534
   21bbb     H7  555   1.143   5.032   1.048  0.6294 -3.9080  0.6513
   21bbb     H8  556   1.023   5.098   1.160  0.4834  1.0260  0.2650
   21bbb     H9  557   1.458   5.384   1.190  1.8132 -1.7462  0.5035
   21bbb    H10  558   1.437   5.253   1.300  1.3568 -0.0440 -1.0283
   21bbb    H11  559   1.261   5.350   1.424 -1.2135 -0.8018 -2.5140
   21bbb    H12  560   1.282   5.505   1.329 -0.8194  0.0669  0.8923
   21bbb    H13  561   1.528   5.411   1.442 -0.9306 -1.7527 -0.2617
   21bbb    H25  562   1.325   5.254   1.070  0.1399  0.0264 -0.0760
   22bbb     N1  563   4.758   3.741   0.452  0.3983  0.3775  0.1988
   22bbb     C1  564   4.674   3.636   0.378  0.8264  0.0947 -0.0453
   22bbb     C2  565   4.862   3.671   0.536  0.3581  0.7181 -0.8814
   22bbb     C3  566   4.681   3.619   0.223 -0.3338  0.5166  0.1342
   22bbb     C4  567   4.815   3.561   0.179 -0.7335 -0.2812 -0.2303
   22bbb     C5  568   4.825   3.579   0.652 -0.2429  0.5190  0.9671
   22bbb     C6  569   4.871   3.631   0.783 -0.7286  0.6123 -0.3576
   22bbb     C7  570   4.689   3.834   0.544 -1.2244 -0.3418  1.3903
   22bbb     C8  571   4.612   3.949   0.470  0.3700 -0.3588 -0.0715
   22bbb     N2  572   4.555   4.050   0.562  0.1937  0.0189  0.5041
   22bbb     O1  573   4.880   3.480   0.250 -0.4041 -0.0963 -0.2605
   22bbb     O2  574   4.796   3.708   0.839  0.2159 -0.1403 -0.1244
   22bbb     H1  575   4.701   3.537   0.416 -0.2312 -0.9774 -1.9521
   22bbb     H2  576   4.570   3.656   0.402  0.2768 -2.7497  0.2932
   22bbb     H3  577   4.933   3.746   0.572  0.2017  0.5975 -0.3204
   22bbb     H4  578   4.926   3.620   0.464  0.0150  0.9567 -1.3568
   22bbb     H5  579   4.601   3.556   0.183 -0.6421  0.3444  1.0003
   22bbb     H6  580   4.672   3.718   0.176 -0.2409  1.2023  1.4860
   22bbb     H7  581   4.859   3.475   0.641 -0.5951  0.6429 -2.0639
   22bbb     H8  582   4.717   3.585   0.665 -0.0514  0.7870  2.7080
   22bbb     H9  583   4.767   3.875   0.608  0.2922 -1.0870  0.0663
   22bbb    H10  584   4.618   3.780   0.608 -1.2614  0.2895  1.8842
   22bbb    H11  585   4.534   3.912   0.403  1.8620  1.3850 -2.9460
   22bbb    H12  586   4.674   3.992   0.390 -0.4159  0.8228 -0.0567
   22bbb    H13  587   4.591   4.145   0.564 -1.4205  0.6583  1.2242
   22bbb    H25  588   4.805   3.804   0.386  0.5859  1.2560  1.1331
   23bbb     N1  589   4.984   4.770   0.877  0.2056 -0.0261 -0.1112
   23bbb     C1  590   4.898   4.886   0.917  0.2123  0.9940 -0.0742
   23bbb     C2  591   5.045   4.787   0.739 -0.3684 -0.4916 -0.8318
   23bbb     C3  592   4.967   4.992   1.003 -0.3930 -0.7450 -0.6389
   23bbb     C4  593   4.976   4.972   1.154  0.0569  0.5058 -0.6475
   23bbb     C5  594   5.132   4.914   0.706  0.1264  0.1033  0.2278
   23bbb     C6  595   5.162   4.928   0.554 -0.3692 -0.0339 -0.2066
   23bbb     C7  596   4.902   4.640   0.866  0.3176 -0.0212  0.4304
   23bbb     C8  597   4.851   4.572   0.994 -0.3785 -0.0323 -0.1744
   23bbb     N2  598   4.773   4.447   0.970 -0.3098 -0.0354  0.2827
   23bbb     O1  599   4.932   4.875   1.211 -0.0293  0.6017 -0.2424
   23bbb     O2  600   5.132   4.838   0.477  0.0479  0.7423  0.2867
   23bbb     H1  601   4.862   4.936   0.827  1.5619 -1.0432 -1.8446
   23bbb     H2  602   4.812   4.852   0.975  0.8867 -0.9748 -0.1500
   23bbb     H3  603   4.963   4.786   0.668 -0.7232 -0.5573 -0.4248
   23bbb     H4  604   5.115   4.703   0.732 -1.9508 -2.0254  0.9623
   23bbb     H5  605   5.069   5.015   0.968  0.1085 -1.7280  0.1063
   23bbb     H6  606   4.921   5.090   0.993 -1.0097 -0.7525  1.5909
   23bbb     H7  607   5.231   4.904   0.751 -0.2572 -2.3609  0.6690
   23bbb     H8  608   5.100   5.014   0.739  3.4699  0.6520  2.2492
   23bbb     H9  609   4.967   4.576   0.807 -0.3941  0.9060 -1.4590
   23bbb    H10  610   4.818   4.659   0.799 -1.7052 -2.2471  2.1418
   23bbb    H11  611   4.795   4.641   1.058  0.5153 -0.5236  1.2094
   23bbb    H12  612   4.945   4.545   1.046 -0.0290 -0.1275 -0.8521
   23bbb    H13  613   4.806   4.376   0.906  0.0912  0.3191  0.0909
   23bbb    H25  614   5.059   4.749   0.945  0.5008  0.8958 -0.1387
   24bbb     N1  615   4.261   5.434  -0.262 -0.4852  1.1410  0.0457
   24bbb     C1  616   4.335   5.304  -0.273  0.3225  0.4000 -0.4887
   24bbb     C2  617   4.348   5.558  -0.287 -0.4776  0.3983 -1.0701
   24bbb     C3  618   4.234   5.187  -0.262  0.1816 -0.1085  0.0606
   24bbb     C4  619   4.283   5.067  -0.341  0.1175  0.0850 -0.2909
   24bbb     C5  620   4.396   5.567  -0.429 -0.4244 -0.4283  0.6432
   24bbb     C6  621   4.429   5.711  -0.462 -0.5668  0.2627 -0.3642
   24bbb     C7  622   4.197   5.449  -0.123 -0.6723 -0.5079  0.1325
   24bbb     C8  623   4.297   5.495  -0.007  0.0587  0.5078 -0.2140
   24bbb     N2  624   4.229   5.500   0.124 -0.8580 -0.1744  0.6322
   24bbb     O1  625   4.405   5.053  -0.355  0.0511  0.0153 -0.7005
   24bbb     O2  626   4.387   5.808  -0.404  0.3813 -0.2073 -0.0358
   24bbb     H1  627   4.387   5.309  -0.369  1.2861  2.9112  0.0765
   24bbb     H2  628   4.412   5.294  -0.197  0.1706  0.8369 -0.2742
   24bbb     H3  629   4.439   5.552  -0.227 -2.0921 -0.4745  1.4307
   24bbb     H4  630   4.297   5.650  -0.255  0.6986  0.8149 -0.3356
   24bbb     H5  631   4.201   5.152  -0.162 -0.3147 -0.6624 -0.2850
   24bbb     H6  632   4.143   5.227  -0.308  1.4248  1.4968 -1.0761
   24bbb     H7  633   4.307   5.541  -0.489 -0.5242 -0.1912  0.6844
   24bbb     H8  634   4.476   5.496  -0.454 -0.3169 -1.0095  2.4843
   24bbb     H9  635   4.166   5.349  -0.095 -0.9941 -0.6968 -0.8646
   24bbb    H10  636   4.115   5.521  -0.132  0.2364  0.2863 -3.0109
   24bbb    H11  637   4.342   5.591  -0.035  1.9108 -0.0060  0.8827
   24bbb    H12  638   4.378   5.421  -0.004 -0.2137  0.1726 -0.9334
   24bbb    H13  639   4.128   5.498   0.132 -1.1524  1.7747 -1.6777
   24bbb    H25  640   4.183   5.427  -0.329 -2.0400  1.2027  1.7583
   25bbb     N1  641   4.384   6.071   1.202  0.6901 -0.1453 -0.4347
   25bbb     C1  642   4.473   6.189   1.219 -0.5272  0.3472  0.1990
   25bbb     C2  643   4.442   5.953   1.284  0.4848 -0.0361 -0.0094
   25bbb     C3  644   4.491   6.257   1.350  0.6460  0.7530 -0.0585
   25bbb     C4  645   4.360   6.297   1.423 -0.2391 -0.4650 -0.2192
   25bbb     C5  646   4.575   5.880   1.233  0.2300 -0.0044 -0.4433
   25bbb     C6  647   4.625   5.784   1.339  0.8747  0.4065 -0.3175
   25bbb     C7  648   4.359   6.031   1.056  0.3461 -0.0995 -0.0918
   25bbb     C8  649   4.241   5.930   1.050  0.6054 -0.0380  0.4761
   25bbb     N2  650   4.239   5.868   0.919  0.2971  0.1208 -0.0801
   25bbb     O1  651   4.267   6.220   1.429 -0.4824  0.1802 -0.8184
   25bbb     O2  652   4.550   5.714   1.405  0.0757 -0.4830  0.1046
   25bbb     H1  653   4.565   6.165   1.166 -0.3723 -0.4938  0.8393
   25bbb     H2  654   4.431   6.263   1.150 -2.3014 -1.0890 -0.3308
   25bbb     H3  655   4.360   5.883   1.303  0.3972 -0.7294 -2.5925
   25bbb     H4  656   4.471   5.999   1.379 -1.3571  1.1854  0.0138
   25bbb     H5  657   4.528   6.174   1.411  0.0375 -1.0687 -2.0302
   25bbb     H6  658   4.564   6.339   1.350 -1.4708  2.7954 -1.6099
   25bbb     H7  659   4.641   5.967   1.232  0.2886  0.0355  1.9488
   25bbb     H8  660   4.568   5.834   1.134  2.2811 -0.6871 -0.3112
   25bbb     H9  661   4.453   5.984   1.027  0.4104 -0.1883  0.2623
   25bbb    H10  662   4.354   6.124   0.998  0.6611 -0.3047 -0.4574
   25bbb    H11  663   4.148   5.985   1.068  0.2734 -0.7170  0.8543
   25bbb    H12  664   4.252   5.848   1.122 -1.6419  1.4996  2.7404
   25bbb    H13  665   4.196   5.910   0.837 -0.4247  1.4754  0.9545
   25bbb    H25  666   4.291   6.098   1.238  0.9675 -0.6464  0.6766
   26bbb     N1  667   3.628   2.889   2.877  0.0553 -0.3056 -0.6941
   26bbb     C1  668   3.642   2.898   3.030  0.3067 -0.1453 -0.5984
   26bbb     C2  669   3.743   2.810   2.816 -0.4523 -0.2601  0.2035
   26bbb     C3  670   3.512   2.907   3.111  0.4249  0.4270  0.9137
   26bbb     C4  671   3.549   2.912   3.257  0.1404  0.1614 -0.5770
   26bbb     C5  672   3.756   2.660   2.837 -0.4117 -0.0850  0.1371
   26bbb     C6  673   3.836   2.589   2.729  0.2510  0.3508 -0.1593
   26bbb     C7  674   3.631   3.016   2.794 -0.3787  0.3376 -0.1254
   26bbb     C8  675   3.555   3.133   2.850  0.5447 -0.0588  0.5051
   26bbb     N2  676   3.559   3.258   2.770 -0.0201  0.1718  0.4321
   26bbb     O1  677   3.669   2.904   3.295  0.0644  0.6580 -0.2050
   26bbb     O2  678   3.899   2.644   2.636 -0.2061  0.4517  0.3661
   26bbb     H1  679   3.692   2.807   3.064  2.2421  0.7897 -0.8182
   26bbb     H2  680   3.704   2.986   3.048 -2.1978  1.5165  0.6622
   26bbb     H3  681   3.836   2.858   2.848 -0.6705  1.8980 -2.1186
   26bbb     H4  682   3.744   2.829   2.709  0.1546 -3.4618 -0.4717
   26bbb     H5  683   3.450   2.996   3.095 -0.5484 -0.1852  1.1641
   26bbb     H6  684   3.447   2.820   3.099  1.3167 -0.2533  0.8883
   26bbb     H7  685   3.657   2.613   2.843  0.6351 -2.3141  0.8613
   26bbb     H8  686   3.814   2.643   2.928  0.7442 -1.0857 -0.7645
   26bbb     H9  687   3.585   2.990   2.698 -0.4770  0.1677 -0.0321
   26bbb    H10  688   3.733   3.052   2.785 -0.0613  0.1047  2.0508
   26bbb    H11  689   3.588   3.160   2.951 -0.8753  0.2736  0.8961
   26bbb    H12  690   3.452   3.096   2.858  0.9387 -2.2841 -2.6651
   26bbb    H13  691   3.573   3.252   2.671  2.0465  2.1299  0.5299
   26bbb    H25  692   3.543   2.836   2.851  1.3013 -1.9409 -1.6206
   27bbb     N1  693   2.557   3.128   3.195 -0.1560 -0.5139  0.0888
   27bbb     C1  694   2.421   3.200   3.212  0.0117 -0.0442 -0.2768
   27bbb     C2  695   2.613   3.103   3.333 -1.0152  0.0929 -0.4536
   27bbb     C3  696   2.347   3.243   3.085 -0.0132 -0.2491 -0.2028
   27bbb     C4  697   2.307   3.132   2.996 -0.6475  0.6602  0.4443
   27bbb     C5  698   2.542   2.996   3.416  0.0526  0.4668 -0.1343
   27bbb     C6  699   2.575   3.001   3.568 -0.1090 -0.5218  0.2541
   27bbb     C7  700   2.654   3.219   3.109  0.2629  0.2558 -0.0247
   27bbb     C8  701   2.779   3.158   3.051  0.9114 -0.3936 -0.1483
   27bbb     N2  702   2.846   3.244   2.955  0.0559 -0.4782 -0.2872
   27bbb     O1  703   2.337   3.016   3.017 -0.0076  0.2355  0.0631
   27bbb     O2  704   2.687   3.030   3.610  0.3710 -0.1242  0.2428
   27bbb     H1  705   2.363   3.126   3.268 -0.6769 -2.7822 -4.1640
   27bbb     H2  706   2.439   3.293   3.267  2.9277  1.1933 -2.9963
   27bbb     H3  707   2.608   3.201   3.380 -2.7486 -0.0491 -0.2934
   27bbb     H4  708   2.719   3.074   3.334 -0.1457  2.9743 -0.8706
   27bbb     H5  709   2.252   3.288   3.116 -1.0622 -1.4510 -1.5897
   27bbb     H6  710   2.399   3.320   3.026  0.5830  0.2645  0.9496
   27bbb     H7  711   2.572   2.900   3.373  0.7364 -0.1017  1.5448
   27bbb     H8  712   2.436   3.014   3.395  0.5648  0.3442 -3.3300
   27bbb     H9  713   2.674   3.303   3.175 -2.5026  0.0879  1.1671
   27bbb    H10  714   2.598   3.239   3.017  3.3658  1.7364 -1.7174
   27bbb    H11  715   2.759   3.067   2.993 -1.1159 -1.4715  2.0586
   27bbb    H12  716   2.845   3.133   3.135  3.4037  3.5771 -0.6964
   27bbb    H13  717   2.813   3.339   2.948 -5.6646 -2.2542 -2.5467
   27bbb    H25  718   2.532   3.039   3.150 -2.1140  0.7669 -1.5719
   28bbb     N1  719   4.747   3.359   1.626 -0.1772 -0.0927  0.1164
   28bbb     C1  720   4.866   3.272   1.664 -1.0738  0.0250 -0.1706
   28bbb     C2  721   4.766   3.428   1.496 -0.5402 -0.4514  0.6527
   28bbb     C3  722   4.870   3.222   1.816 -0.1495  1.0480  0.1001
   28bbb     C4  723   4.970   3.104   1.838 -0.6813 -0.2238  0.1166
   28bbb     C5  724   4.748   3.342   1.369 -0.4669 -0.2114 -0.5528
   28bbb     C6  725   4.752   3.433   1.242 -0.9888 -0.0824 -0.0712
   28bbb     C7  726   4.738   3.475   1.723 -0.2405  0.2307 -0.2554
   28bbb     C8  727   4.617   3.569   1.710  0.7054  0.4426  0.2843
   28bbb     N2  728   4.488   3.494   1.704 -0.3138 -0.1913  0.3864
   28bbb     O1  729   5.030   3.045   1.749 -0.1361 -0.0501 -0.1273
   28bbb     O2  730   4.857   3.460   1.180 -0.0537  0.4015 -0.4985
   28bbb     H1  731   4.877   3.187   1.597  3.1165 -0.9001  1.3676
   28bbb     H2  732   4.958   3.329   1.649  0.1079 -0.7891  3.0375
   28bbb     H3  733   4.861   3.481   1.492 -1.3226  0.9697  0.2684
   28bbb     H4  734   4.685   3.500   1.485 -1.0499 -1.1930 -0.7084
   28bbb     H5  735   4.886   3.303   1.890  0.4512  0.9624  0.0696
   28bbb     H6  736   4.773   3.176   1.838  0.7546 -1.9151 -1.5437
   28bbb     H7  737   4.655   3.285   1.379  0.0699 -1.1344 -0.6866
   28bbb     H8  738   4.830   3.269   1.362  1.0899  1.1042  2.0958
   28bbb     H9  739   4.832   3.529   1.710 -0.6259  0.7413 -1.0258
   28bbb    H10  740   4.744   3.440   1.826 -1.7685  0.1400 -0.1712
   28bbb    H11  741   4.633   3.634   1.624 -1.5086  0.4180 -0.2185
   28bbb    H12  742   4.612   3.641   1.793 -0.0994 -1.6782  2.1805
   28bbb    H13  743   4.503   3.394   1.713 -0.0729  0.0061  2.5394
   28bbb    H25  744   4.664   3.298   1.618 -0.6643  0.6253 -0.3841
   29bbb     N1  745   3.760   2.677   1.476  0.3885  0.0651  0.5255
   29bbb     C1  746   3.745   2.559   1.569 -0.1566 -0.3560  0.4832
   29bbb     C2  747   3.667   2.655   1.353 -0.2645  0.7452 -0.3450
   29bbb     C3  748   3.853   2.528   1.687  0.7223 -0.7695  0.2120
   29bbb     C4  749   3.804   2.406   1.758 -0.0947 -0.1697  0.8047
   29bbb     C5  750   3.518   2.688   1.378  0.3424  0.1973 -0.2367
   29bbb     C6  751   3.441   2.716   1.257 -0.3798 -0.1727  0.2580
   29bbb     C7  752   3.898   2.697   1.431 -0.2033  0.9129  0.0470
   29bbb     C8  753   3.927   2.838   1.372  0.3138 -0.4512  0.0611
   29bbb     N2  754   3.902   2.942   1.476 -0.1509  0.0905  0.2647
   29bbb     O1  755   3.702   2.415   1.826 -0.1152 -0.3446  0.2279
   29bbb     O2  756   3.486   2.712   1.143 -0.8409 -0.8167 -0.9083
   29bbb     H1  757   3.642   2.565   1.606  0.1508  2.8452  1.1228
   29bbb     H2  758   3.744   2.475   1.500 -0.2609  0.7628 -0.9280
   29bbb     H3  759   3.677   2.549   1.327 -0.2128  0.4917  0.6595
   29bbb     H4  760   3.705   2.705   1.264 -0.4592  0.9808 -0.2964
   29bbb     H5  761   3.956   2.532   1.650  0.6899 -0.8774  0.1097
   29bbb     H6  762   3.847   2.606   1.764 -3.0933  0.2378 -0.9014
   29bbb     H7  763   3.522   2.770   1.450  1.7958 -0.2558  0.2444
   29bbb     H8  764   3.463   2.604   1.422 -3.4310  1.0068 -2.9660
   29bbb     H9  765   3.920   2.607   1.375  0.8174 -2.6443  5.3916
   29bbb    H10  766   3.969   2.681   1.513  2.0366  0.7715 -1.8023
   29bbb    H11  767   3.847   2.859   1.301  1.6045 -0.2743 -1.3971
   29bbb    H12  768   4.030   2.850   1.336  1.2460 -1.0821  2.3029
   29bbb    H13  769   3.904   2.917   1.575 -2.3556 -1.4657 -0.0202
   29bbb    H25  770   3.741   2.764   1.528 -0.3015  2.0774 -2.7473
   30bbb     N1  771   4.571   5.515   3.881  0.6861 -0.1116 -0.1437
   30bbb     C1  772   4.594   5.571   4.022 -0.2636  1.0492  0.9233
   30bbb     C2  773   4.705   5.477   3.820  0.0022 -0.4388 -0.2656
   30bbb     C3  774   4.681   5.692   4.034 -0.2527 -0.3769 -0.6975
   30bbb     C4  775   4.717   5.721   4.183  0.7903 -0.1128 -0.3953
   30bbb     C5  776   4.689   5.339   3.754 -0.9580  0.4833  0.4070
   30bbb     C6  777   4.819   5.270   3.712 -0.1887 -0.2271 -0.1303
   30bbb     C7  778   4.508   5.618   3.793  0.7242  0.1410 -0.1284
   30bbb     C8  779   4.465   5.571   3.648  0.6614  0.1176 -0.5903
   30bbb     N2  780   4.378   5.663   3.574 -0.2261 -0.3193 -0.3700
   30bbb     O1  781   4.709   5.634   4.263  0.1816  0.6476 -0.2059
   30bbb     O2  782   4.836   5.214   3.609 -0.5142  0.0340 -0.2785
   30bbb     H1  783   4.496   5.580   4.069 -1.3970  0.7005 -1.2608
   30bbb     H2  784   4.649   5.495   4.077  0.8478  1.2645  0.1341
   30bbb     H3  785   4.778   5.488   3.900  0.1243  1.8891 -0.6350
   30bbb     H4  786   4.721   5.559   3.750  1.0076 -0.2073  0.2126
   30bbb     H5  787   4.770   5.695   3.969 -0.8242  1.7161 -1.4649
   30bbb     H6  788   4.619   5.778   4.009 -0.0556  0.0071  0.0948
   30bbb     H7  789   4.640   5.349   3.656  0.1359 -1.9163 -0.4603
   30bbb     H8  790   4.633   5.269   3.817  1.0524 -1.7834 -0.1836
   30bbb     H9  791   4.576   5.703   3.787  0.9037 -0.0875 -4.2526
   30bbb    H10  792   4.419   5.658   3.842  0.7461  0.3673 -0.2684
   30bbb    H11  793   4.402   5.483   3.664 -0.3361  0.7055 -1.1679
   30bbb    H12  794   4.553   5.553   3.584  1.1490  1.5341 -0.3378
   30bbb    H13  795   4.315   5.716   3.632 -0.1005 -1.9984  1.3721
   30bbb    H25  796   4.506   5.435   3.886 -2.6066  2.2727 -1.0887
   31bbb     N1  797   4.318   6.418   2.778 -0.4969  0.0922 -0.8046
   31bbb     C1  798   4.469   6.445   2.789 -0.0446  0.3156  1.1983
   31bbb     C2  799   4.253   6.378   2.908  0.5016 -0.4546  0.2221
   31bbb     C3  800   4.514   6.525   2.661 -0.1052  0.9266  0.0652
   31bbb     C4  801   4.471   6.668   2.658  0.5237  0.1804  0.1041
   31bbb     C5  802   4.249   6.491   3.010 -0.3399  0.2428  0.1266
   31bbb     C6  803   4.162   6.465   3.131  0.6129  0.0673 -0.2459
   31bbb     C7  804   4.280   6.318   2.669  0.3412 -0.5336  0.5546
   31bbb     C8  805   4.338   6.176   2.671 -0.5031  0.1077 -0.3064
   31bbb     N2  806   4.295   6.098   2.784 -0.7847  0.7467  0.1161
   31bbb     O1  807   4.377   6.700   2.727  0.1417  0.3051  0.5164
   31bbb     O2  808   4.075   6.378   3.126 -0.6967  0.3264 -0.3912
   31bbb     H1  809   4.489   6.497   2.883  1.3201 -0.2277  1.2188
   31bbb     H2  810   4.518   6.348   2.796 -1.2839 -0.5806 -1.3597
   31bbb     H3  811   4.300   6.286   2.943  1.3617 -0.2866 -0.4545
   31bbb     H4  812   4.153   6.344   2.879  0.8533 -2.2869  1.0244
   31bbb     H5  813   4.623   6.525   2.668 -0.1419  0.8119  0.7202
   31bbb     H6  814   4.480   6.485   2.565 -1.3492 -3.2173  2.0066
   31bbb     H7  815   4.203   6.581   2.966 -0.9323 -0.1173 -0.0039
   31bbb     H8  816   4.350   6.522   3.038  0.0680 -0.6032 -0.3718
   31bbb     H9  817   4.319   6.377   2.586 -2.5746  1.9759  0.7943
   31bbb    H10  818   4.172   6.311   2.662  0.4939 -1.0727 -2.4520
   31bbb    H11  819   4.447   6.177   2.672 -0.4961 -0.2544 -0.8552
   31bbb    H12  820   4.301   6.133   2.577 -0.6372  0.7983 -0.5745
   31bbb    H13  821   4.201   6.061   2.796 -0.5144  0.1641  0.5127
   31bbb    H25  822   4.260   6.497   2.748 -0.7642 -0.2719 -1.2724
   32bbb     N1  823   5.159   4.327   3.409 -0.0096 -0.4383  0.2107
   32bbb     C1  824   5.301   4.397   3.420  0.2008  0.4001 -0.0553
   32bbb     C2  825   5.158   4.203   3.499 -0.0775 -0.0134 -0.2308
   32bbb     C3  826   5.422   4.321   3.354  0.3307  0.1041  0.5977
   32bbb     C4  827   5.555   4.387   3.390 -0.8605 -0.3496 -0.1011
   32bbb     C5  828   5.017   4.170   3.563 -0.1346 -0.0900 -0.9706
   32bbb     C6  829   5.028   4.071   3.679 -0.5703 -0.0304  0.2318
   32bbb     C7  830   5.125   4.287   3.260  1.1085  0.4012  0.1324
   32bbb     C8  831   4.973   4.270   3.224 -0.8701  0.7527  0.3179
   32bbb     N2  832   4.897   4.389   3.255 -0.7014 -0.7452 -0.4339
   32bbb     O1  833   5.577   4.504   3.389 -0.2006  0.1764 -0.0522
   32bbb     O2  834   5.113   3.981   3.675  0.1275  0.1810 -0.2814
   32bbb     H1  835   5.295   4.496   3.375 -0.7110  0.2067 -0.3905
   32bbb     H2  836   5.314   4.412   3.527  0.2528 -0.3254  0.0438
   32bbb     H3  837   5.233   4.221   3.576  0.1650  1.3503 -0.7521
   32bbb     H4  838   5.190   4.114   3.445 -0.4173 -0.5560  0.4459
   32bbb     H5  839   5.421   4.216   3.387 -0.9707 -0.1162 -0.0811
   32bbb     H6  840   5.415   4.312   3.244 -1.5986 -1.1251  0.7679
   32bbb     H7  841   4.961   4.120   3.483  1.9127 -1.8267 -1.4056
   32bbb     H8  842   4.968   4.260   3.602  0.9233 -1.1822  3.5134
   32bbb     H9  843   5.178   4.193   3.244  0.2735 -0.3134  1.3817
   32bbb    H10  844   5.162   4.368   3.197  0.2240  0.9027  0.2420
   32bbb    H11  845   4.932   4.181   3.274 -0.8609  1.5813  1.8683
   32bbb    H12  846   4.969   4.243   3.118  0.9557 -0.1513  0.4350
   32bbb    H13  847   4.853   4.400   3.345  0.7606 -0.1678  0.2541
   32bbb    H25  848   5.090   4.396   3.443  1.0323  0.4749  0.5402
   33bbb     N1  849   4.608   3.900   2.756  0.1654  0.1105  0.8832
   33bbb     C1  850   4.570   3.834   2.617 -0.0261 -0.1227  0.5629
   33bbb     C2  851   4.493   3.888   2.844  0.4083 -1.1218  0.4994
   33bbb     C3  852   4.691   3.799   2.525  0.6623 -0.2963  0.0719
   33bbb     C4  853   4.799   3.718   2.588  0.6009  0.0887  0.1423
   33bbb     C5  854   4.484   3.753   2.917  1.3076 -0.4543 -0.2586
   33bbb     C6  855   4.578   3.743   3.037  0.6339 -0.0560  0.1200
   33bbb     C7  856   4.639   4.050   2.720  0.1291 -0.4986  0.4766
   33bbb     C8  857   4.700   4.137   2.833  0.0157 -0.4560 -0.0773
   33bbb     N2  858   4.708   4.281   2.805 -0.2779 -0.0182  0.1231
   33bbb     O1  859   4.798   3.672   2.700  0.0011 -0.0967  0.4058
   33bbb     O2  860   4.700   3.758   3.029 -0.1526 -0.6515 -0.3229
   33bbb     H1  861   4.517   3.739   2.629  1.0234 -0.6624  1.1039
   33bbb     H2  862   4.508   3.900   2.557  0.0786 -1.3245 -0.9293
   33bbb     H3  863   4.416   3.905   2.768  0.3118  3.1194  1.3074
   33bbb     H4  864   4.481   3.978   2.905 -1.3263 -1.4822  0.7595
   33bbb     H5  865   4.656   3.746   2.435 -0.2826  0.1506  0.1661
   33bbb     H6  866   4.734   3.894   2.491 -0.7681  1.1820  2.1533
   33bbb     H7  867   4.502   3.666   2.853  1.8592  0.7012 -1.7308
   33bbb     H8  868   4.381   3.729   2.946  0.4762  1.6148 -1.2748
   33bbb     H9  869   4.540   4.093   2.706  0.9731  1.3451 -0.1519
   33bbb    H10  870   4.679   4.071   2.621 -2.4303  0.3751 -0.4597
   33bbb    H11  871   4.802   4.102   2.851  0.0304  0.1960  1.2274
   33bbb    H12  872   4.637   4.131   2.923 -0.5268 -2.5987 -0.5412
   33bbb    H13  873   4.801   4.309   2.778  0.4673 -1.6085  0.9089
   33bbb    H25  874   4.687   3.850   2.799  0.5150 -0.7275 -0.6909
   34bbb     N1  875   3.426   6.585   3.556  0.3532  0.2953 -0.6755
   34bbb     C1  876   3.281   6.550   3.582 -0.5495 -0.0589  0.1703
   34bbb     C2  877   3.448   6.730   3.582 -0.3261  0.3516  0.0056
   34bbb     C3  878   3.234   6.539   3.729 -0.4619 -0.0446 -0.1384
   34bbb     C4  879   3.098   6.485   3.730  0.6232  0.5795  0.0801
   34bbb     C5  880   3.600   6.768   3.603  0.5451 -0.1117  0.1148
   34bbb     C6  881   3.615   6.902   3.672 -0.6525 -0.4319  0.0059
   34bbb     C7  882   3.481   6.549   3.420 -0.4342 -0.0991  0.3745
   34bbb     C8  883   3.486   6.398   3.389  0.1487 -0.2249 -0.6662
   34bbb     N2  884   3.516   6.375   3.251  0.4425  0.4663 -0.1128
   34bbb     O1  885   3.042   6.441   3.631  0.6693 -0.8222 -0.2469
   34bbb     O2  886   3.559   6.941   3.774 -0.4400 -0.2903 -0.4413
   34bbb     H1  887   3.227   6.622   3.520  1.3798  2.5629  1.3603
   34bbb     H2  888   3.256   6.454   3.536  0.2534  0.4202 -1.3414
   34bbb     H3  889   3.383   6.773   3.659  0.3436  2.7374 -0.6907
   34bbb     H4  890   3.418   6.781   3.490  1.7664 -0.5792 -1.2752
   34bbb     H5  891   3.300   6.470   3.782  1.7455  2.3891  0.4599
   34bbb     H6  892   3.228   6.636   3.780 -1.9119  0.0748 -0.4833
   34bbb     H7  893   3.668   6.772   3.517  0.1708 -1.1045 -0.2402
   34bbb     H8  894   3.644   6.688   3.665 -0.9048 -2.7101 -1.9973
   34bbb     H9  895   3.581   6.594   3.415  0.0565 -0.9970  1.5305
   34bbb    H10  896   3.416   6.600   3.349  1.4023  0.6471 -0.8700
   34bbb    H11  897   3.389   6.359   3.423  0.2087  0.7278  0.7142
   34bbb    H12  898   3.558   6.340   3.448  1.1126 -0.4754 -2.0665
   34bbb    H13  899   3.601   6.412   3.209  1.7586 -2.7925 -0.6454
   34bbb    H25  900   3.478   6.537   3.630  0.1908  1.4470  0.2144
   35bbb     N1  901   2.791   6.839   2.428  0.2937 -0.2822 -0.0070
   35bbb     C1  902   2.780   6.858   2.584  0.1427 -0.0490 -0.8323
   35bbb     C2  903   2.654   6.806   2.372 -0.4227 -0.5973 -0.3172
   35bbb     C3  904   2.706   6.739   2.654 -0.3310  0.8358 -0.0794
   35bbb     C4  905   2.776   6.684   2.780 -0.4385 -0.3094 -0.2846
   35bbb     C5  906   2.657   6.776   2.223  0.0764  0.7679  0.3810
   35bbb     C6  907   2.525   6.743   2.146 -0.2474 -0.2950  0.3354
   35bbb     C7  908   2.906   6.744   2.384 -0.7628  0.1649  0.0868
   35bbb     C8  909   3.042   6.787   2.441  0.7459  0.2117 -0.3586
   35bbb     N2  910   3.080   6.718   2.567 -0.0023 -0.2605 -0.1892
   35bbb     O1  911   2.884   6.633   2.774  0.2261  0.0054 -0.0496
   35bbb     O2  912   2.416   6.750   2.200  0.4190  0.6788  0.2178
   35bbb     H1  913   2.877   6.875   2.629 -0.6715 -0.2616  1.1341
   35bbb     H2  914   2.720   6.944   2.614  0.7793 -0.2360  1.1558
   35bbb     H3  915   2.599   6.899   2.391  1.1952  0.5380 -1.0198
   35bbb     H4  916   2.606   6.727   2.430  0.8030 -0.1968  1.3437
   35bbb     H5  917   2.605   6.777   2.674 -0.0621  1.6004 -0.1136
   35bbb     H6  918   2.698   6.654   2.586 -0.5129  1.7001 -1.1750
   35bbb     H7  919   2.727   6.693   2.205  1.0951  2.1614 -2.8613
   35bbb     H8  920   2.707   6.854   2.164  3.9896 -0.4957  1.6878
   35bbb     H9  921   2.903   6.744   2.275 -0.1262  2.0772  0.0346
   35bbb    H10  922   2.885   6.646   2.428  1.0851 -0.8804 -1.2358
   35bbb    H11  923   3.051   6.896   2.454  1.4849  0.1010  0.0894
   35bbb    H12  924   3.122   6.772   2.368  2.3674 -0.6452  1.4963
   35bbb    H13  925   3.066   6.771   2.652  0.6842  0.1442 -0.3223
   35bbb    H25  926   2.812   6.931   2.386  0.6754 -1.2559 -2.0826
   36bbb     N1  927   2.382   5.202   3.920  0.2067 -0.1525  0.0827
   36bbb     C1  928   2.252   5.129   3.886  0.3218  0.5402 -0.3997
   36bbb     C2  929   2.485   5.099   3.964 -0.1805 -0.4730 -0.4062
   36bbb     C3  930   2.158   5.221   3.803  0.4763 -0.1953  0.6637
   36bbb     C4  931   2.027   5.147   3.783  0.3560 -0.4152 -0.1566
   36bbb     C5  932   2.438   5.012   4.082 -0.4324  0.2797  0.4416
   36bbb     C6  933   2.559   4.938   4.145  0.5788  0.7891  0.5289
   36bbb     C7  934   2.361   5.311   4.023 -0.3655  0.1273 -0.1462
   36bbb     C8  935   2.461   5.430   4.012  0.2791 -0.2079  0.3070
   36bbb     N2  936   2.432   5.526   3.902  0.7160  0.0521  0.0902
   36bbb     O1  937   2.013   5.031   3.810  0.3005  0.1862 -0.0101
   36bbb     O2  938   2.668   4.988   4.145 -0.3612 -0.0517  0.4580
   36bbb     H1  939   2.279   5.036   3.835  1.0210 -0.0862  1.0625
   36bbb     H2  940   2.206   5.102   3.981  0.1618 -1.5389 -1.0233
   36bbb     H3  941   2.581   5.147   3.984 -0.2564  0.5224 -2.1883
   36bbb     H4  942   2.499   5.033   3.877 -1.6372 -2.2289  0.6244
   36bbb     H5  943   2.149   5.320   3.850 -0.7158 -0.6429  1.4133
   36bbb     H6  944   2.197   5.238   3.702 -3.3342 -1.5274 -1.2377
   36bbb     H7  945   2.361   4.943   4.046 -1.3492  0.8958  1.2033
   36bbb     H8  946   2.389   5.071   4.160  1.2279 -1.5312  3.0031
   36bbb     H9  947   2.384   5.262   4.118  1.0670  0.5532 -0.2367
   36bbb    H10  948   2.259   5.347   4.011 -0.1258  0.4731 -1.3826
   36bbb    H11  949   2.564   5.398   3.989  0.2265  0.4715 -0.9928
   36bbb    H12  950   2.466   5.481   4.109  1.4213  1.7334 -0.7120
   36bbb    H13  951   2.477   5.512   3.813 -2.0193  2.1758 -1.7615
   36bbb    H25  952   2.421   5.258   3.843  1.5808  1.9808  2.1742
   37bbb     N1  953   2.061   6.346   4.166  0.3870 -0.3426  0.4860
   37bbb     C1  954   2.107   6.466   4.087  0.8570 -0.3476  0.4423
   37bbb     C2  955   1.928   6.365   4.244 -0.2305  0.7529  0.1092
   37bbb     C3  956   2.001   6.511   3.981 -0.0124  0.1375  0.0077
   37bbb     C4  957   2.050   6.626   3.898  0.4644 -0.4321 -0.1675
   37bbb     C5  958   1.885   6.250   4.339  0.0262  0.1821  0.8008
   37bbb     C6  959   1.746   6.259   4.385 -0.1655  0.2504 -0.7250
   37bbb     C7  960   2.167   6.304   4.267  0.2713 -0.1066 -0.2439
   37bbb     C8  961   2.315   6.306   4.220  0.7580  0.2013 -0.1968
   37bbb     N2  962   2.345   6.182   4.141 -0.7621  0.2986 -0.3005
   37bbb     O1  963   2.154   6.684   3.921  0.5000  0.3786 -0.2146
   37bbb     O2  964   1.650   6.286   4.312  0.1210  0.0095  0.2181
   37bbb     H1  965   2.126   6.547   4.158  0.2959 -0.5194  0.7901
   37bbb     H2  966   2.201   6.438   4.040 -0.3228 -0.4734 -1.9644
   37bbb     H3  967   1.856   6.395   4.168 -1.1006  1.3177  1.1370
   37bbb     H4  968   1.953   6.448   4.309  0.3896 -0.7019  1.8112
   37bbb     H5  969   1.980   6.425   3.916  2.7974  0.1073 -0.9600
   37bbb     H6  970   1.911   6.545   4.034  0.5985  0.3277  0.9541
   37bbb     H7  971   1.952   6.233   4.424  1.0415  1.2551  0.2465
   37bbb     H8  972   1.897   6.151   4.294 -0.7109 -0.1235  1.2633
   37bbb     H9  973   2.140   6.204   4.298  1.5877 -0.6057 -0.6236
   37bbb    H10  974   2.155   6.367   4.356 -1.9581  1.1373 -1.3494
   37bbb    H11  975   2.374   6.304   4.312 -0.2819 -0.1394  0.4754
   37bbb    H12  976   2.331   6.405   4.174  1.1018  1.1540  1.8592
   37bbb    H13  977   2.384   6.104   4.191  0.1385  0.5247 -0.6227
   37bbb    H25  978   2.054   6.267   4.100  1.3218 -1.3874  1.5727
   38bbb     N1  979   2.475   4.278   0.191  0.2019 -0.2055  0.2045
   38bbb     C1  980   2.384   4.221   0.297  0.4203 -0.1643 -0.0108
   38bbb     C2  981   2.602   4.295   0.253 -0.2671 -0.3458 -0.5927
   38bbb     C3  982   2.250   4.171   0.248  0.1633 -0.2733  0.3445
   38bbb     C4  983   2.170   4.100   0.359 -0.0884  0.5124 -0.4073
   38bbb     C5  984   2.685   4.167   0.277 -0.7090  0.1528 -0.3479
   38bbb     C6  985   2.790   4.191   0.383  0.3630 -0.1817 -0.2043
   38bbb     C7  986   2.411   4.409   0.138 -0.2363 -0.1632  0.3894
   38bbb     C8  987   2.452   4.447  -0.008  0.6129 -0.5491  0.1794
   38bbb     N2  988   2.376   4.564  -0.050  0.0089 -0.1521 -0.1907
   38bbb     O1  989   2.184   4.131   0.478  0.5616  0.0614 -0.4778
   38bbb     O2  990   2.761   4.248   0.485 -0.4400 -0.2950 -0.5654
   38bbb     H1  991   2.443   4.142   0.343  0.2694 -0.4653 -0.3285
   38bbb     H2  992   2.362   4.299   0.370 -0.7043  1.8139 -2.3299
   38bbb     H3  993   2.595   4.353   0.345  0.2129 -0.1389 -0.6856
   38bbb     H4  994   2.657   4.351   0.178  0.8907 -0.2514  0.3015
   38bbb     H5  995   2.183   4.252   0.218  1.4730  1.1276  1.0967
   38bbb     H6  996   2.270   4.102   0.165 -1.6062  0.9630 -1.1867
   38bbb     H7  997   2.742   4.139   0.188 -0.0371  2.1522 -0.6034
   38bbb     H8  998   2.624   4.086   0.319  0.2704 -0.2326  0.3873
   38bbb     H9  999   2.451   4.487   0.202  1.2043 -1.6721  1.4157
   38bbb    H10 1000   2.303   4.395   0.144 -0.2324  0.1162  1.1419
   38bbb    H11 1001   2.446   4.368  -0.083 -0.0947 -0.1212 -0.2243
   38bbb    H12 1002   2.558   4.476  -0.007  1.0948 -1.8876  3.7934
   38bbb    H13 1003   2.277   4.546  -0.063 -0.0007  1.2181 -2.6498
   38bbb    H25 1004   2.489   4.213   0.112  1.5098 -1.7288  1.6240
   39bbb     N1 1005   1.582   5.061  -0.383 -0.5268  0.3930 -0.2222
   39bbb     C1 1006   1.568   4.919  -0.453 -0.7693 -0.0142  0.3765
   39bbb     C2 1007   1.473   5.155  -0.425  0.2945 -0.3400 -0.1361
   39bbb     C3 1008   1.602   4.903  -0.607  0.4416 -0.3317 -0.2640
   39bbb     C4 1009   1.567   4.760  -0.643 -0.5673 -0.9351  0.1327
   39bbb     C5 1010   1.328   5.109  -0.395  0.3760  0.1560  0.6126
   39bbb     C6 1011   1.293   5.122  -0.252 -0.4964 -0.5961 -0.2960
   39bbb     C7 1012   1.707   5.132  -0.427 -0.4065  0.0273 -0.4052
   39bbb     C8 1013   1.842   5.055  -0.404  0.3467 -0.1382  0.4744
   39bbb     N2 1014   1.880   5.038  -0.266  0.0985 -0.4226 -0.3103
   39bbb     O1 1015   1.492   4.695  -0.580  0.2671 -0.9232 -0.4181
   39bbb     O2 1016   1.373   5.128  -0.161 -0.3983 -0.1613  0.6233
   39bbb     H1 1017   1.649   4.863  -0.405  0.4456  1.0114 -0.4188
   39bbb     H2 1018   1.470   4.880  -0.428 -0.8543  0.0020  0.0755
   39bbb     H3 1019   1.487   5.154  -0.533  1.3801  0.1861 -0.0085
   39bbb     H4 1020   1.494   5.253  -0.382 -0.9124 -0.3629  0.5627
   39bbb     H5 1021   1.539   4.960  -0.677 -4.2008 -3.0982  1.2100
   39bbb     H6 1022   1.705   4.929  -0.636 -0.1366  0.6785 -1.5007
   39bbb     H7 1023   1.307   5.006  -0.426 -0.5950  0.0910  1.4402
   39bbb     H8 1024   1.256   5.179  -0.438  0.6034  1.3336  2.0582
   39bbb     H9 1025   1.709   5.230  -0.378 -1.5529  0.1228 -0.5282
   39bbb    H10 1026   1.713   5.143  -0.535  0.6083  0.5429 -0.3116
   39bbb    H11 1027   1.921   5.100  -0.464  0.3210 -0.4138  0.2322
   39bbb    H12 1028   1.832   4.954  -0.445  0.5315  0.3506 -0.8285
   39bbb    H13 1029   1.828   4.971  -0.210 -1.8571  2.1984  1.2042
   39bbb    H25 1030   1.597   5.045  -0.282  2.3466  0.2738 -0.5795
   40bbb     N1 1031   2.525   7.033   1.088 -0.3683  0.2776  0.0085
   40bbb     C1 1032   2.448   7.130   0.999  0.5846  0.1985 -0.1863
   40bbb     C2 1033   2.627   7.102   1.180  0.3624 -0.6266  0.6169
   40bbb     C3 1034   2.330   7.192   1.084  0.4887  0.2212  0.0362
   40bbb     C4 1035   2.361   7.319   1.169 -0.2840  0.7503  0.5641
   40bbb     C5 1036   2.727   7.183   1.093 -0.4539 -0.1815  0.7835
   40bbb     C6 1037   2.852   7.233   1.174 -0.4333 -0.1833  0.2202
   40bbb     C7 1038   2.587   6.915   1.021 -0.5292  0.3547 -0.4521
   40bbb     C8 1039   2.486   6.829   0.949 -0.8528  0.0846 -0.8549
   40bbb     N2 1040   2.550   6.702   0.900 -0.6420 -0.4455  0.0401
   40bbb     O1 1041   2.472   7.369   1.160 -0.5916 -0.2188  0.1952
   40bbb     O2 1042   2.926   7.151   1.226 -0.5005 -0.0109  0.3200
   40bbb     H1 1043   2.512   7.204   0.951  0.7661  0.7239  0.8342
   40bbb     H2 1044   2.407   7.077   0.913  0.2065  0.6142 -0.2694
   40bbb     H3 1045   2.678   7.028   1.242 -0.8121 -3.0127 -1.1087
   40bbb     H4 1046   2.561   7.164   1.240  1.9502  0.6958  1.0685
   40bbb     H5 1047   2.252   7.220   1.011  0.9121  1.2729 -0.0308
   40bbb     H6 1048   2.292   7.115   1.152  3.1457  1.0468  2.6186
   40bbb     H7 1049   2.671   7.267   1.052 -3.0097 -1.9492  0.4263
   40bbb     H8 1050   2.776   7.127   1.012  1.8643 -0.1082  2.0362
   40bbb     H9 1051   2.635   6.855   1.098  0.8941  0.3848 -1.2774
   40bbb    H10 1052   2.663   6.947   0.949 -0.3329 -1.9267 -1.3379
   40bbb    H11 1053   2.449   6.894   0.869 -1.3260  1.3570  0.3612
   40bbb    H12 1054   2.400   6.799   1.009 -2.6097  2.7898 -1.8115
   40bbb    H13 1055   2.650   6.685   0.902 -0.5618  0.0420  0.3461
   40bbb    H25 1056   2.459   6.983   1.150  1.4255 -2.1828  0.0746
   41bbb     N1 1057   2.581   6.172  -0.142  0.8178  0.0380 -0.6512
   41bbb     C1 1058   2.491   6.298  -0.154  0.1735  0.4693  0.2836
   41bbb     C2 1059   2.546   6.069  -0.255  0.3334 -0.2971  0.4775
   41bbb     C3 1060   2.534   6.403  -0.254  0.4181  0.3564 -0.3927
   41bbb     C4 1061   2.426   6.512  -0.277 -0.5028  0.7492  0.2636
   41bbb     C5 1062   2.615   5.933  -0.249  0.6884  0.4691 -0.0710
   41bbb     C6 1063   2.769   5.951  -0.233  0.0288  0.3733 -0.4204
   41bbb     C7 1064   2.561   6.111   0.001  0.0638  0.7476  0.0991
   41bbb     C8 1065   2.633   6.202   0.105  0.4666  0.6250 -0.0414
   41bbb     N2 1066   2.612   6.155   0.247  0.5730  0.2049  0.1638
   41bbb     O1 1067   2.358   6.511  -0.380 -0.3040  0.9969 -0.6171
   41bbb     O2 1068   2.813   5.997  -0.128 -0.0657 -0.2202  0.2462
   41bbb     H1 1069   2.394   6.254  -0.178  0.9400 -1.4600  0.5734
   41bbb     H2 1070   2.472   6.347  -0.058 -0.0700  0.6332  0.1540
   41bbb     H3 1071   2.561   6.112  -0.354  1.7208  1.1918  1.2989
   41bbb     H4 1072   2.438   6.059  -0.246  0.2376  2.0295  2.8373
   41bbb     H5 1073   2.627   6.452  -0.223  0.8684  0.0571 -1.2452
   41bbb     H6 1074   2.555   6.365  -0.355  0.6425  2.1064 -1.0489
   41bbb     H7 1075   2.600   5.871  -0.339  0.8511 -0.9800  0.8656
   41bbb     H8 1076   2.575   5.876  -0.164  2.4198  0.8924  1.0801
   41bbb     H9 1077   2.611   6.014   0.011  0.2252  0.7636 -0.4936
   41bbb    H10 1078   2.453   6.106   0.017 -0.0755  1.7105 -0.5043
   41bbb    H11 1079   2.598   6.306   0.097  2.3423  1.3822  1.1297
   41bbb    H12 1080   2.741   6.205   0.088  0.4017  2.4371 -0.3742
   41bbb    H13 1081   2.651   6.068   0.281 -2.1966 -0.9012  0.7696
   41bbb    H25 1082   2.674   6.211  -0.163  0.5417  0.4045 -1.2314
   42bbb     N1 1083   0.786   4.414   2.653  0.0493 -0.8963 -0.5457
   42bbb     C1 1084   0.750   4.311   2.549  0.0350  0.2011 -1.1288
   42bbb     C2 1085   0.725   4.360   2.778  0.1026 -0.0680 -0.0177
   42bbb     C3 1086   0.863   4.231   2.476 -1.0711 -0.2628  0.0343
   42bbb     C4 1087   0.958   4.153   2.566  0.9076  0.3107  0.3380
   42bbb     C5 1088   0.768   4.414   2.919  0.0888 -0.1063  0.1546
   42bbb     C6 1089   0.915   4.386   2.962  0.7433  0.0815  0.2019
   42bbb     C7 1090   0.729   4.562   2.622  0.0479  0.1868 -0.2707
   42bbb     C8 1091   0.797   4.617   2.498 -0.3058 -0.5014  0.1972
   42bbb     N2 1092   0.890   4.726   2.523  0.0166  0.4450 -0.1422
   42bbb     O1 1093   0.943   4.143   2.684  0.0878 -0.1014 -0.2499
   42bbb     O2 1094   1.011   4.377   2.889 -0.1855  0.0647  0.5187
   42bbb     H1 1095   0.681   4.241   2.596 -0.5950  2.3471  1.3644
   42bbb     H2 1096   0.685   4.365   2.479 -1.0622 -0.0126 -0.2917
   42bbb     H3 1097   0.747   4.254   2.768  0.2632 -0.0116 -0.2697
   42bbb     H4 1098   0.616   4.363   2.769  0.1114  1.3399  0.1312
   42bbb     H5 1099   0.815   4.153   2.415 -2.6790 -0.8759  1.9672
   42bbb     H6 1100   0.920   4.298   2.409  0.0232 -0.6488  0.5670
   42bbb     H7 1101   0.694   4.379   2.992 -1.1420  0.4106 -0.8125
   42bbb     H8 1102   0.756   4.522   2.911 -0.0482  0.1490  2.8784
   42bbb     H9 1103   0.736   4.618   2.715  0.5177  0.8312 -0.6848
   42bbb    H10 1104   0.621   4.549   2.615 -0.2005 -0.1408  2.7722
   42bbb    H11 1105   0.726   4.665   2.430  1.9326 -0.0524 -1.9742
   42bbb    H12 1106   0.851   4.541   2.439 -0.1850 -1.3814  1.3990
   42bbb    H13 1107   0.988   4.712   2.500 -0.7433 -1.1592 -2.6994
   42bbb    H25 1108   0.887   4.431   2.663 -0.1019 -1.3223  3.3994
   43bbb     N1 1109   0.548   6.001   2.395  0.3726 -0.6557 -0.2586
   43bbb     C1 1110   0.444   6.026   2.283  0.2204 -0.4955 -0.6078
   43bbb     C2 1111   0.647   6.114   2.404  0.6629 -0.2729 -0.2823
   43bbb     C3 1112   0.314   5.942   2.284 -0.3342 -0.4477  0.6511
   43bbb     C4 1113   0.220   5.951   2.405 -0.0983 -0.0147  0.4566
   43bbb     C5 1114   0.586   6.245   2.465  0.7393 -0.3591  0.1977
   43bbb     C6 1115   0.678   6.367   2.462 -0.1294 -0.4772 -0.0771
   43bbb     C7 1116   0.633   5.877   2.361 -0.3382  0.0011 -0.5305
   43bbb     C8 1117   0.674   5.789   2.484  0.2658  0.2469  0.1418
   43bbb     N2 1118   0.723   5.657   2.438  0.1716  0.6905  1.0029
   43bbb     O1 1119   0.239   6.034   2.493 -1.1002  0.3268  0.5969
   43bbb     O2 1120   0.763   6.384   2.370  0.3682 -0.2890 -0.4555
   43bbb     H1 1121   0.422   6.133   2.280  3.8785  0.3964 -0.5632
   43bbb     H2 1122   0.495   6.007   2.188  2.0821 -0.6520  0.3699
   43bbb     H3 1123   0.704   6.118   2.311 -0.0218 -0.8296 -0.7386
   43bbb     H4 1124   0.720   6.076   2.476  0.3957 -0.5456 -0.1571
   43bbb     H5 1125   0.258   5.973   2.195 -1.5355 -1.9181  0.8506
   43bbb     H6 1126   0.331   5.834   2.276  1.6430 -0.1516  0.5754
   43bbb     H7 1127   0.546   6.225   2.566 -0.9428  0.2542 -0.3029
   43bbb     H8 1128   0.495   6.275   2.411 -0.1427 -0.9715  1.2895
   43bbb     H9 1129   0.726   5.907   2.312 -0.0701  2.7136  1.4508
   43bbb    H10 1130   0.569   5.824   2.290 -1.6053  2.7028 -1.5341
   43bbb    H11 1131   0.580   5.770   2.536  0.3908 -1.5475 -0.2264
   43bbb    H12 1132   0.750   5.837   2.548 -1.4010  2.3413  0.6438
   43bbb    H13 1133   0.759   5.645   2.343  0.2922 -1.1479  1.2482
   43bbb    H25 1134   0.499   6.003   2.485  1.1775 -0.4622  0.1837
   44bbb     N1 1135   0.762   5.771   1.009  0.5590 -0.2578 -0.2699
   44bbb     C1 1136   0.661   5.709   0.907  0.2845  0.4258  0.0098
   44bbb     C2 1137   0.689   5.846   1.124 -0.2507 -0.2438 -0.1825
   44bbb     C3 1138   0.643   5.550   0.939 -0.5796  0.0652  0.1814
   44bbb     C4 1139   0.555   5.486   0.836 -0.5488 -0.1202 -0.4103
   44bbb     C5 1140   0.765   5.913   1.242 -0.3570 -0.3851  0.4739
   44bbb     C6 1141   0.816   5.810   1.344 -0.5241 -0.1967  0.0786
   44bbb     C7 1142   0.872   5.850   0.945  0.2351  0.6494 -0.2109
   44bbb     C8 1143   1.012   5.821   1.004  0.2668  0.6194 -0.4425
   44bbb     N2 1144   1.065   5.688   0.981  0.3298 -0.4637  0.1451
   44bbb     O1 1145   0.530   5.530   0.725  0.2550 -0.0066 -0.5149
   44bbb     O2 1146   0.779   5.694   1.338 -0.2963 -0.0527 -0.6658
   44bbb     H1 1147   0.571   5.766   0.885  1.8594  1.8356 -3.4961
   44bbb     H2 1148   0.718   5.720   0.814 -0.1056  1.9736 -0.0754
   44bbb     H3 1149   0.604   5.787   1.158 -0.8725  0.4752 -0.4671
   44bbb     H4 1150   0.640   5.924   1.066 -0.0661  0.2490  0.3181
   44bbb     H5 1151   0.741   5.501   0.944  0.6918  2.4423  0.1786
   44bbb     H6 1152   0.599   5.528   1.037 -2.6250 -1.5112 -1.0005
   44bbb     H7 1153   0.694   5.977   1.295 -0.6324 -0.9194  0.7579
   44bbb     H8 1154   0.848   5.978   1.210  0.6591 -1.4652  0.8149
   44bbb     H9 1155   0.857   5.956   0.967  0.1619  1.2236 -2.7534
   44bbb    H10 1156   0.863   5.833   0.837 -0.5178 -2.0123  0.2010
   44bbb    H11 1157   1.020   5.838   1.112  1.4446  0.0146 -0.4156
   44bbb    H12 1158   1.076   5.896   0.954 -0.3924  1.4870 -0.0205
   44bbb    H13 1159   1.106   5.672   0.890  0.2402 -0.3044  0.0758
   44bbb    H25 1160   0.803   5.685   1.049 -1.7071 -0.2519  2.3391
   45bbb     N1 1161   0.936   4.470   1.234 -0.4008  0.1585  0.1230
   45bbb     C1 1162   0.974   4.378   1.121 -0.1816 -1.0954 -0.7075
   45bbb     C2 1163   0.801   4.435   1.303 -0.2883 -0.3619  0.6246
   45bbb     C3 1164   1.078   4.266   1.155  1.0865  0.3497 -0.7108
   45bbb     C4 1165   1.221   4.318   1.190  0.3449 -0.2627  0.2733
   45bbb     C5 1166   0.664   4.416   1.221 -0.0711 -0.1294  0.8082
   45bbb     C6 1167   0.542   4.398   1.317 -0.9283 -0.1489 -0.2240
   45bbb     C7 1168   0.926   4.615   1.165 -0.0064  1.2073 -0.0489
   45bbb     C8 1169   0.944   4.730   1.263 -0.1093 -0.4448  0.1576
   45bbb     N2 1170   0.986   4.865   1.208 -0.0494 -0.2638 -0.0942
   45bbb     O1 1171   1.237   4.440   1.210 -0.0557  0.3886 -0.0874
   45bbb     O2 1172   0.563   4.348   1.428 -0.1945  0.2287  1.0047
   45bbb     H1 1173   0.879   4.332   1.094 -2.0534  1.9935  0.0549
   45bbb     H2 1174   1.013   4.435   1.036 -0.0917  0.9660  0.6410
   45bbb     H3 1175   0.796   4.514   1.379 -1.9247  0.3034 -0.1297
   45bbb     H4 1176   0.809   4.337   1.349 -0.1140 -2.0170 -2.6473
   45bbb     H5 1177   1.046   4.203   1.239 -0.3654 -1.4413 -2.5034
   45bbb     H6 1178   1.094   4.193   1.075  0.6915 -0.3183 -0.1920
   45bbb     H7 1179   0.668   4.323   1.163  1.0303  1.4970 -1.9883
   45bbb     H8 1180   0.637   4.485   1.140 -1.9359 -1.1115  0.5390
   45bbb     H9 1181   0.828   4.623   1.118 -0.1917 -0.6544 -0.0524
   45bbb    H10 1182   1.004   4.621   1.090  2.0024 -3.9721  1.2047
   45bbb    H11 1183   1.026   4.701   1.331  1.7437 -3.9762 -3.1878
   45bbb    H12 1184   0.856   4.745   1.327 -0.9777  0.0995 -1.1260
   45bbb    H13 1185   0.921   4.910   1.145 -1.5825 -0.3276  1.3795
   45bbb    H25 1186   1.006   4.478   1.310  1.7577  2.3046 -1.8848
   46bbb     N1 1187   4.912   3.374  -0.122 -1.2560 -0.1654 -0.3125
   46bbb     C1 1188   4.970   3.282  -0.013 -0.3843  0.1649  0.3198
   46bbb     C2 1189   4.909   3.316  -0.259 -0.7723  0.4997 -0.1518
   46bbb     C3 1190   4.888   3.156   0.019  0.3523 -0.5341  0.1884
   46bbb     C4 1191   4.956   3.039   0.090  0.6854 -0.2359  0.0962
   46bbb     C5 1192   4.831   3.404  -0.368 -0.2692  0.0145  0.5120
   46bbb     C6 1193   4.831   3.338  -0.504  0.0831  0.6739 -0.4591
   46bbb     C7 1194   5.001   3.500  -0.125  0.0313 -0.3350  0.3913
   46bbb     C8 1195   4.993   3.587  -0.002  0.2038 -0.4386 -0.7750
   46bbb     N2 1196   4.848   3.593   0.046  0.2072 -0.1158  0.3203
   46bbb     O1 1197   5.077   3.022   0.108 -0.2726  0.5953  0.1954
   46bbb     O2 1198   4.874   3.224  -0.527  0.7485  0.3261 -0.4910
   46bbb     H1 1199   5.073   3.265  -0.042  0.3254  3.9036  0.0667
   46bbb     H2 1200   4.991   3.337   0.079  1.9095  1.2276 -0.7568
   46bbb     H3 1201   4.865   3.216  -0.263  0.8393 -0.2126 -0.6976
   46bbb     H4 1202   5.015   3.316  -0.284 -0.4912 -1.1506  0.8342
   46bbb     H5 1203   4.802   3.183   0.081 -0.6450 -1.2169 -0.8594
   46bbb     H6 1204   4.839   3.126  -0.075  2.0474  0.5650 -1.1263
   46bbb     H7 1205   4.886   3.499  -0.376 -0.6256  0.1530 -0.4411
   46bbb     H8 1206   4.727   3.417  -0.335 -0.6559 -2.5487  0.5410
   46bbb     H9 1207   4.993   3.561  -0.216  0.0377 -0.5841  0.2220
   46bbb    H10 1208   5.103   3.463  -0.130 -0.2038 -0.9878  0.4248
   46bbb    H11 1209   5.024   3.684  -0.041  0.9890 -0.4458 -0.1735
   46bbb    H12 1210   5.061   3.551   0.076 -1.6779 -0.4013  0.9719
   46bbb    H13 1211   4.792   3.662  -0.003  1.3009  0.0600 -0.7135
   46bbb    H25 1212   4.815   3.388  -0.089 -0.8536 -0.4230  1.0395
   47bbb     N1 1213   5.277   3.602   1.087 -0.3165  0.1193 -0.0591
   47bbb     C1 1214   5.213   3.532   1.206 -0.4616  0.4619  0.2325
   47bbb     C2 1215   5.282   3.753   1.118  0.5969  0.6775  0.2692
   47bbb     C3 1216   5.173   3.386   1.187 -0.3976  0.0792 -0.4867
   47bbb     C4 1217   5.145   3.314   1.317  0.2406 -0.3500 -0.3436
   47bbb     C5 1218   5.332   3.801   1.251 -0.8266 -0.4337  0.2612
   47bbb     C6 1219   5.478   3.780   1.259 -0.0078  0.5084 -0.4000
   47bbb     C7 1220   5.208   3.591   0.949  0.2101 -0.0871 -0.5152
   47bbb     C8 1221   5.067   3.647   0.942 -0.0179  0.4127  0.0602
   47bbb     N2 1222   4.997   3.593   0.828  0.4407 -0.2396 -0.1678
   47bbb     O1 1223   5.149   3.375   1.419  0.0837 -0.2089 -0.4375
   47bbb     O2 1224   5.542   3.716   1.178 -0.4611 -0.6625  0.1689
   47bbb     H1 1225   5.295   3.532   1.279 -0.2384  2.5084  0.0550
   47bbb     H2 1226   5.135   3.593   1.251  0.9513  2.2091  0.4674
   47bbb     H3 1227   5.178   3.785   1.103  1.4800  4.0980  0.5714
   47bbb     H4 1228   5.343   3.795   1.037  0.2096 -0.3063 -0.5581
   47bbb     H5 1229   5.084   3.387   1.123 -0.5700  0.7135 -0.2424
   47bbb     H6 1230   5.245   3.329   1.127 -0.5497 -1.1923  0.4965
   47bbb     H7 1231   5.271   3.761   1.332 -0.3601 -1.4869  0.1088
   47bbb     H8 1232   5.319   3.910   1.256  0.6707 -0.2310  0.3259
   47bbb     H9 1233   5.198   3.488   0.914  1.7624 -0.5491  0.2447
   47bbb    H10 1234   5.275   3.631   0.873  2.3566 -4.7685 -1.4303
   47bbb    H11 1235   5.061   3.757   0.940  0.5847  0.4754 -2.6389
   47bbb    H12 1236   5.018   3.615   1.034 -0.4316 -3.7663 -1.3957
   47bbb    H13 1237   5.052   3.536   0.764 -0.8654 -1.6692 -0.0646
   47bbb    H25 1238   5.373   3.567   1.085 -0.3393  0.0505  0.0440
   48bbb     N1 1239   5.124   4.923   1.542 -0.3355  0.2893  0.8491
   48bbb     C1 1240   5.262   4.890   1.598  0.1107  0.4569  0.1831
   48bbb     C2 1241   5.044   4.802   1.495  0.5989 -0.2890 -0.0157
   48bbb     C3 1242   5.333   5.005   1.674  0.0427 -0.2812 -0.6546
   48bbb     C4 1243   5.467   4.960   1.726 -0.3419  0.5705 -0.1219
   48bbb     C5 1244   5.015   4.695   1.602 -0.3975  0.4427  0.1439
   48bbb     C6 1245   5.127   4.591   1.619 -0.1042  0.4069  0.5813
   48bbb     C7 1246   5.150   5.012   1.427  0.6907  0.5358 -0.4266
   48bbb     C8 1247   5.031   5.092   1.365 -0.0617  0.5284 -0.2027
   48bbb     N2 1248   5.038   5.078   1.219  0.4418  0.9907 -0.9976
   48bbb     O1 1249   5.547   4.895   1.657 -0.1028 -0.7796 -0.7746
   48bbb     O2 1250   5.220   4.604   1.534 -0.0668  0.0937  0.2485
   48bbb     H1 1251   5.254   4.795   1.650  2.6238  0.7004  1.1422
   48bbb     H2 1252   5.323   4.870   1.509  1.8405  1.1924  1.1392
   48bbb     H3 1253   5.100   4.757   1.413  0.6660  0.0267 -0.1467
   48bbb     H4 1254   4.949   4.842   1.458  1.0956 -0.0648 -1.1008
   48bbb     H5 1255   5.357   5.089   1.607 -0.2875  0.2836 -0.0795
   48bbb     H6 1256   5.280   5.047   1.760  1.4736 -0.5185  0.3771
   48bbb     H7 1257   4.920   4.644   1.581 -1.8107  3.2366 -0.7016
   48bbb     H8 1258   4.987   4.731   1.702  0.3812  0.4449  0.3708
   48bbb     H9 1259   5.197   4.940   1.360  1.1717 -0.4159  0.9004
   48bbb    H10 1260   5.223   5.084   1.464  0.4585  0.0340  1.0533
   48bbb    H11 1261   5.047   5.195   1.398 -0.2672  0.5568 -0.1937
   48bbb    H12 1262   4.932   5.072   1.407  0.7697  1.0609  2.1523
   48bbb    H13 1263   5.065   5.152   1.154  1.0957  0.3268 -1.5019
   48bbb    H25 1264   5.068   4.972   1.614 -2.1214  0.8286 -0.7948
   49bbb     N1 1265   5.485   5.155   0.244 -0.2800  0.0946  0.3978
   49bbb     C1 1266   5.450   5.075   0.118  0.4973 -0.2437  0.2832
   49bbb     C2 1267   5.639   5.177   0.253  0.3101 -0.0592 -0.4650
   49bbb     C3 1268   5.481   4.925   0.120 -1.0505 -0.2929  0.5349
   49bbb     C4 1269   5.460   4.848  -0.012  0.3910 -0.0384 -0.0367
   49bbb     C5 1270   5.675   5.256   0.380 -0.4848 -0.1605  0.2402
   49bbb     C6 1271   5.825   5.297   0.390 -0.8501 -0.7193  0.1701
   49bbb     C7 1272   5.434   5.088   0.370  0.9087  0.2306 -0.4556
   49bbb     C8 1273   5.281   5.077   0.382  0.4996  0.8929 -0.0841
   49bbb     N2 1274   5.234   5.041   0.518  0.8003 -0.3330 -0.7572
   49bbb     O1 1275   5.458   4.908  -0.115  0.0852  0.3383  0.3828
   49bbb     O2 1276   5.911   5.219   0.351 -0.7390  0.1085 -0.4270
   49bbb     H1 1277   5.343   5.088   0.102  0.2300 -1.7089  0.7817
   49bbb     H2 1278   5.491   5.119   0.027 -0.8740  1.1002  0.2700
   49bbb     H3 1279   5.666   5.240   0.168  0.8083  1.2515  0.6321
   49bbb     H4 1280   5.693   5.082   0.249  2.5595  0.9705  2.3978
   49bbb     H5 1281   5.583   4.907   0.155 -1.2246 -1.6714  0.3753
   49bbb     H6 1282   5.413   4.876   0.191 -0.5502 -0.0330  1.2038
   49bbb     H7 1283   5.657   5.203   0.474 -1.8240 -0.6482 -0.2672
   49bbb     H8 1284   5.619   5.350   0.391  1.9965  1.2083  2.3389
   49bbb     H9 1285   5.461   5.140   0.462 -3.2444  0.5332  0.8121
   49bbb    H10 1286   5.464   4.983   0.377  1.8330  0.4583 -0.8465
   49bbb    H11 1287   5.232   5.008   0.311  1.1687 -0.6666  0.9165
   49bbb    H12 1288   5.243   5.178   0.364 -1.7566  0.0263 -0.5532
   49bbb    H13 1289   5.259   5.101   0.596 -3.3263  0.9789 -0.2357
   49bbb    H25 1290   5.443   5.249   0.240 -0.2801  0.2304  2.4650
   50bbb     N1 1291   4.200   4.695  -0.661  0.4656 -0.2985  0.2007
   50bbb     C1 1292   4.125   4.592  -0.588  0.1562  0.6507  0.2771
   50bbb     C2 1293   4.351   4.661  -0.651  0.4869 -0.5019  0.3989
   50bbb     C3 1294   3.978   4.610  -0.638 -0.4532  0.4520  0.4337
   50bbb     C4 1295   3.882   4.514  -0.568 -0.3717  0.1744  0.0005
   50bbb     C5 1296   4.396   4.528  -0.723  0.4286 -0.6956  0.3359
   50bbb     C6 1297   4.359   4.508  -0.869 -0.4759 -0.5790 -0.9585
   50bbb     C7 1298   4.179   4.841  -0.608  0.5566  0.4959  0.2975
   50bbb     C8 1299   4.223   4.856  -0.456 -0.6781 -0.4442 -0.6624
   50bbb     N2 1300   4.187   4.979  -0.380  0.0173  0.5199  0.8328
   50bbb     O1 1301   3.916   4.455  -0.462  0.5998  0.2355  0.4562
   50bbb     O2 1302   4.270   4.569  -0.926  0.6783  0.6737  0.8445
   50bbb     H1 1303   4.161   4.492  -0.609  0.2202 -0.0165  3.0865
   50bbb     H2 1304   4.131   4.609  -0.480  0.5514 -0.7503  0.4923
   50bbb     H3 1305   4.383   4.656  -0.547 -0.8119  2.4274  1.0506
   50bbb     H4 1306   4.401   4.740  -0.708 -2.8358  0.9307 -0.7709
   50bbb     H5 1307   3.929   4.707  -0.623 -3.5038 -0.8859 -0.1429
   50bbb     H6 1308   3.970   4.591  -0.746  0.5657  0.5421  0.3277
   50bbb     H7 1309   4.357   4.441  -0.669 -3.5425  1.2236  0.9361
   50bbb     H8 1310   4.505   4.543  -0.724  0.3253  0.0562  0.3866
   50bbb     H9 1311   4.075   4.873  -0.615  0.5327  0.2661 -0.4527
   50bbb    H10 1312   4.236   4.909  -0.672  2.4481 -0.6238  0.7077
   50bbb    H11 1313   4.332   4.849  -0.466 -0.8599 -1.5918 -2.1867
   50bbb    H12 1314   4.188   4.770  -0.398  0.1076 -0.2249  0.1686
   50bbb    H13 1315   4.092   5.005  -0.360 -0.2569  0.5698 -0.4795
   50bbb    H25 1316   4.169   4.686  -0.759  0.2478 -1.7562  0.3759
   51bbb     N1 1317   4.433   6.020  -0.636  0.3668 -0.0495 -0.5437
   51bbb     C1 1318   4.403   6.130  -0.740  0.5470  0.3944  0.1708
   51bbb     C2 1319   4.434   6.084  -0.492 -0.5303 -0.1921  0.4215
   51bbb     C3 1320   4.359   6.070  -0.881  0.1504 -0.3280  0.1273
   51bbb     C4 1321   4.239   5.970  -0.882 -0.0121  0.0480 -0.1929
   51bbb     C5 1322   4.289   6.111  -0.435 -0.8530 -0.4049 -0.7343
   51bbb     C6 1323   4.310   6.161  -0.291 -0.2405 -0.3958  0.0007
   51bbb     C7 1324   4.568   5.952  -0.673 -0.4780  0.1858  0.0245
   51bbb     C8 1325   4.614   5.845  -0.571  0.0419  0.0582  0.0307
   51bbb     N2 1326   4.520   5.732  -0.566 -0.2212 -0.6723 -0.5815
   51bbb     O1 1327   4.234   5.876  -0.803  0.2623  0.0601 -0.4615
   51bbb     O2 1328   4.340   6.082  -0.206 -0.1442 -0.1845  0.1635
   51bbb     H1 1329   4.324   6.198  -0.709 -1.1170 -1.1683 -0.4123
   51bbb     H2 1330   4.499   6.182  -0.743 -0.8596  3.2239  1.0647
   51bbb     H3 1331   4.487   6.179  -0.502  1.9739 -1.7052 -2.1458
   51bbb     H4 1332   4.489   6.017  -0.425  0.5580  0.5310  0.2834
   51bbb     H5 1333   4.328   6.153  -0.946 -0.0916 -0.6342 -0.1530
   51bbb     H6 1334   4.442   6.020  -0.931 -0.8957 -2.0266 -0.0012
   51bbb     H7 1335   4.230   6.019  -0.438 -0.1534 -0.8337 -1.4907
   51bbb     H8 1336   4.246   6.187  -0.501 -1.6466  1.8278  2.0945
   51bbb     H9 1337   4.645   6.029  -0.676 -0.2474 -0.0676 -0.8623
   51bbb    H10 1338   4.548   5.907  -0.770 -3.4025  0.8718  0.2201
   51bbb    H11 1339   4.629   5.883  -0.469 -0.5500  0.0076  0.1438
   51bbb    H12 1340   4.714   5.817  -0.605  0.8569  3.6525 -1.0274
   51bbb    H13 1341   4.550   5.651  -0.619  0.1650 -1.5116  0.8645
   51bbb    H25 1342   4.366   5.942  -0.636  2.2603 -1.8850 -3.4731
   52bbb     N1 1343   4.055   6.405   1.398 -0.1525  0.1894  0.3278
   52bbb     C1 1344   3.980   6.460   1.283 -0.3053  0.2000  0.3571
   52bbb     C2 1345   3.972   6.335   1.503  0.5531 -0.3528 -0.0039
   52bbb     C3 1346   4.063   6.497   1.152 -0.4547  0.1660 -0.1830
   52bbb     C4 1347   4.150   6.387   1.085 -0.0398 -0.1455 -0.4287
   52bbb     C5 1348   3.941   6.178   1.490  0.2060 -0.1396 -0.6605
   52bbb     C6 1349   3.845   6.101   1.584 -0.6254 -0.2794  0.2645
   52bbb     C7 1350   4.134   6.525   1.452 -0.8059  0.4838 -0.1829
   52bbb     C8 1351   4.258   6.485   1.544  0.0043  0.6998  0.7442
   52bbb     N2 1352   4.365   6.426   1.459  0.6455  0.7369 -0.0200
   52bbb     O1 1353   4.208   6.295   1.148 -0.0750 -0.1260 -0.2108
   52bbb     O2 1354   3.804   6.157   1.680  0.7934 -0.0228  0.1176
   52bbb     H1 1355   3.905   6.387   1.255 -0.0158  0.4053 -1.0111
   52bbb     H2 1356   3.915   6.544   1.311 -1.3011 -0.6668  0.6965
   52bbb     H3 1357   3.877   6.387   1.517  0.6018 -0.3812  0.4661
   52bbb     H4 1358   4.026   6.346   1.597 -0.9776  0.8502  0.7819
   52bbb     H5 1359   3.988   6.538   1.084 -2.5720 -0.3518  1.7059
   52bbb     H6 1360   4.132   6.580   1.170 -0.1585  0.1544 -1.1968
   52bbb     H7 1361   4.034   6.120   1.490 -0.2379 -0.8835  0.3548
   52bbb     H8 1362   3.896   6.158   1.392 -1.2734  1.0323 -0.2549
   52bbb     H9 1363   4.066   6.585   1.513  0.9898  0.6467  1.7364
   52bbb    H10 1364   4.172   6.583   1.368  2.9363 -3.2170 -1.3938
   52bbb    H11 1365   4.226   6.421   1.627 -3.0052  0.4502 -0.4820
   52bbb    H12 1366   4.312   6.566   1.596  0.8290 -1.1104  2.8684
   52bbb    H13 1367   4.445   6.485   1.444 -0.2302  1.7389 -0.9315
   52bbb    H25 1368   4.128   6.343   1.358  0.1403  0.1468  0.9265
   53bbb     N1 1369   4.983   5.829   1.550  0.2983  0.5709  0.0664
   53bbb     C1 1370   5.131   5.876   1.560  0.3166 -0.0208  0.2607
   53bbb     C2 1371   4.936   5.798   1.694  0.1040  0.0959  0.3884
   53bbb     C3 1372   5.183   5.952   1.436 -0.1141 -0.0854 -0.3261
   53bbb     C4 1373   5.320   6.019   1.460  0.8128 -0.0250  0.0531
   53bbb     C5 1374   5.002   5.674   1.766  0.3185  0.0262 -0.7685
   53bbb     C6 1375   4.958   5.670   1.913 -0.4467 -0.1373  0.1914
   53bbb     C7 1376   4.970   5.706   1.467 -0.1064  0.1087  0.1610
   53bbb     C8 1377   4.823   5.664   1.430  0.1533 -0.0624 -0.3987
   53bbb     N2 1378   4.760   5.762   1.339 -0.2464 -0.7590  0.7637
   53bbb     O1 1379   5.372   6.044   1.568  0.1163 -0.2471 -0.1265
   53bbb     O2 1380   4.857   5.726   1.947 -0.4787  0.4060  0.3399
   53bbb     H1 1381   5.129   5.948   1.643  0.4411 -0.0257  0.2676
   53bbb     H2 1382   5.192   5.788   1.577 -0.0011 -0.3934 -0.5041
   53bbb     H3 1383   4.827   5.796   1.697  0.0320 -0.9379 -1.3753
   53bbb     H4 1384   4.964   5.884   1.755 -5.4561  1.6015  1.2928
   53bbb     H5 1385   5.180   5.882   1.352  0.9663 -1.9714  1.1202
   53bbb     H6 1386   5.120   6.038   1.409  0.6120  0.1454 -1.3442
   53bbb     H7 1387   5.111   5.680   1.773  0.2998  2.9856 -1.6228
   53bbb     H8 1388   4.973   5.579   1.720  0.4366 -0.4041  0.0278
   53bbb     H9 1389   5.025   5.621   1.506  0.5467 -0.3908 -1.7247
   53bbb    H10 1390   5.023   5.733   1.376 -0.7895  0.6923 -0.0742
   53bbb    H11 1391   4.761   5.665   1.521 -0.6058 -0.1605 -0.9111
   53bbb    H12 1392   4.837   5.559   1.400  1.5883  0.0878 -0.3444
   53bbb    H13 1393   4.806   5.820   1.271 -3.4449  2.5745  1.1106
   53bbb    H25 1394   4.929   5.901   1.500 -0.8224  1.0111  1.8307
   54bbb     N1 1395   3.452   3.038   3.711 -0.7562 -0.6350 -0.0023
   54bbb     C1 1396   3.388   3.166   3.767  0.0814 -0.5703  0.6396
   54bbb     C2 1397   3.597   3.025   3.753 -0.5707 -0.0655 -0.3833
   54bbb     C3 1398   3.370   3.190   3.919  0.4063  0.8438  0.3250
   54bbb     C4 1399   3.301   3.317   3.954 -0.7377 -0.2855 -0.0341
   54bbb     C5 1400   3.624   2.935   3.875 -0.0754 -0.3911 -0.1466
   54bbb     C6 1401   3.759   2.980   3.936  0.1692 -0.3649  0.5197
   54bbb     C7 1402   3.452   3.041   3.562  0.7226  0.2070  0.1642
   54bbb     C8 1403   3.450   2.911   3.491 -0.1750  0.0370  0.2103
   54bbb     N2 1404   3.444   2.932   3.348 -0.1061 -0.1299 -0.3601
   54bbb     O1 1405   3.300   3.412   3.874  0.2687  0.5244  0.4744
   54bbb     O2 1406   3.865   2.982   3.873  0.4063 -0.1991  0.1204
   54bbb     H1 1407   3.455   3.242   3.725 -1.6679  1.2118  0.9389
   54bbb     H2 1408   3.289   3.170   3.722 -0.6245  1.5428  2.2223
   54bbb     H3 1409   3.629   3.126   3.781 -0.7273 -0.4170  1.1410
   54bbb     H4 1410   3.665   3.000   3.671 -1.1469 -0.0566 -0.8743
   54bbb     H5 1411   3.327   3.095   3.954  0.0705  1.0260  0.4170
   54bbb     H6 1412   3.468   3.198   3.967 -0.2680  1.2910  1.6798
   54bbb     H7 1413   3.642   2.830   3.846  3.0067  0.3660 -1.3644
   54bbb     H8 1414   3.553   2.936   3.958 -0.2917  1.2531 -0.3260
   54bbb     H9 1415   3.542   3.095   3.532  1.7438 -0.6989  1.4712
   54bbb    H10 1416   3.364   3.104   3.546 -0.2506 -0.5130  2.3292
   54bbb    H11 1417   3.364   2.857   3.532  0.6868 -0.5523  1.3039
   54bbb    H12 1418   3.542   2.854   3.506 -0.8203 -1.0702  0.1187
   54bbb    H13 1419   3.350   2.949   3.315  0.1332  2.7827  0.1701
   54bbb    H25 1420   3.406   2.953   3.745 -1.2954  0.3118  1.7553
   55bbb     N1 1421   4.084   2.273   2.784 -0.0624  0.2515  0.3975
   55bbb     C1 1422   4.234   2.275   2.780  0.3227 -0.0930  0.1905
   55bbb     C2 1423   4.026   2.132   2.791 -0.0092 -0.5847  0.5842
   55bbb     C3 1424   4.284   2.391   2.867  0.4289 -0.1489  0.7152
   55bbb     C4 1425   4.435   2.381   2.876 -0.1879 -0.4544 -0.4559
   55bbb     C5 1426   4.084   2.039   2.902  0.1660 -0.6123  0.3404
   55bbb     C6 1427   4.068   2.100   3.044  0.4349  0.1694  0.3662
   55bbb     C7 1428   4.036   2.344   2.656  0.0217 -0.3293  0.8607
   55bbb     C8 1429   3.886   2.371   2.628  0.4126  0.1639  0.5504
   55bbb     N2 1430   3.838   2.453   2.739 -0.0535 -0.6184  0.6513
   55bbb     O1 1431   4.503   2.361   2.776 -0.0782 -0.2346 -0.2509
   55bbb     O2 1432   4.097   2.215   3.064  0.0311  0.2397 -0.0341
   55bbb     H1 1433   4.273   2.184   2.826 -0.0223 -0.1994  0.2727
   55bbb     H2 1434   4.271   2.281   2.677 -2.2156  1.1993 -0.7214
   55bbb     H3 1435   4.051   2.090   2.694 -0.3787 -0.4554  0.4325
   55bbb     H4 1436   3.918   2.136   2.797  0.0056  2.8640  0.8946
   55bbb     H5 1437   4.251   2.487   2.826 -0.0435 -0.9391 -0.8511
   55bbb     H6 1438   4.238   2.380   2.966  1.4259 -1.8357  1.0226
   55bbb     H7 1439   4.185   2.000   2.883  0.1733 -0.2910 -0.3280
   55bbb     H8 1440   4.033   1.942   2.904  1.7595 -1.4961  0.1638
   55bbb     H9 1441   4.076   2.287   2.572  1.0491  0.4706  0.7772
   55bbb    H10 1442   4.087   2.441   2.660 -0.9192  0.1363  2.1978
   55bbb    H11 1443   3.834   2.274   2.622 -1.1193  1.0118 -0.5270
   55bbb    H12 1444   3.869   2.427   2.536  0.5109 -0.3042  0.2467
   55bbb    H13 1445   3.810   2.409   2.826  1.3772 -0.9289  0.9769
   55bbb    H25 1446   4.044   2.309   2.871  1.8703  1.6111  0.7739
   56bbb     N1 1447   2.061   2.903   2.685  0.0307 -0.4356 -0.4307
   56bbb     C1 1448   2.163   2.788   2.665  0.1246 -0.3135 -0.2814
   56bbb     C2 1449   2.037   2.986   2.558 -0.1794  0.6091  0.8711
   56bbb     C3 1450   2.193   2.689   2.786 -0.5816  0.4264 -0.2016
   56bbb     C4 1451   2.294   2.576   2.760 -0.1757 -1.1173 -0.2305
   56bbb     C5 1452   2.002   2.904   2.427  0.2796 -0.4424  0.0900
   56bbb     C6 1453   1.953   2.999   2.312 -0.1175  0.0392 -0.0702
   56bbb     C7 1454   2.097   2.999   2.792  0.0973 -0.0450 -0.1492
   56bbb     C8 1455   2.224   3.087   2.771 -0.0735  0.6125  0.1107
   56bbb     N2 1456   2.242   3.169   2.885 -0.3036 -0.5760 -0.5649
   56bbb     O1 1457   2.299   2.524   2.652  0.1466  0.5443  0.4439
   56bbb     O2 1458   1.920   3.111   2.334 -0.1130  0.0482 -0.3044
   56bbb     H1 1459   2.142   2.732   2.573  2.1490  0.1486 -1.0776
   56bbb     H2 1460   2.257   2.837   2.642 -1.4330  1.9832 -2.3227
   56bbb     H3 1461   2.128   3.045   2.545  0.5469 -0.7160 -0.2015
   56bbb     H4 1462   1.953   3.053   2.579 -0.6278  0.4540 -0.3609
   56bbb     H5 1463   2.228   2.759   2.863 -0.8907  1.9238 -1.3798
   56bbb     H6 1464   2.101   2.635   2.813  0.9199 -1.4832  1.4307
   56bbb     H7 1465   1.924   2.832   2.453  0.9305 -0.7948  1.1089
   56bbb     H8 1466   2.081   2.839   2.389  0.1088  0.6113 -2.2946
   56bbb     H9 1467   2.105   2.960   2.894  0.0534  0.5848  0.1039
   56bbb    H10 1468   2.014   3.069   2.791  0.0014 -0.1642 -0.4386
   56bbb    H11 1469   2.229   3.156   2.687  0.7779  2.0123  1.2748
   56bbb    H12 1470   2.312   3.021   2.765 -0.8765 -0.5473  0.6024
   56bbb    H13 1471   2.240   3.269   2.867 -1.1276 -0.8201 -1.9946
   56bbb    H25 1472   1.972   2.858   2.710 -0.5501  0.1590 -1.3893
   57bbb     N1 1473   2.430   2.783   3.969 -0.3108 -0.3713 -0.0920
   57bbb     C1 1474   2.579   2.790   4.004  0.4459 -0.0478 -1.0143
   57bbb     C2 1475   2.377   2.643   3.979  0.8559  0.0769 -0.0603
   57bbb     C3 1476   2.618   2.742   4.143  0.9457 -0.0211 -0.0683
   57bbb     C4 1477   2.765   2.761   4.181  0.2277  0.5452  0.3907
   57bbb     C5 1478   2.221   2.622   3.991  0.1713  0.0287  0.2933
   57bbb     C6 1479   2.167   2.528   3.880  0.1128  0.0753  0.7023
   57bbb     C7 1480   2.417   2.827   3.827  0.4801  0.2517 -0.2875
   57bbb     C8 1481   2.464   2.968   3.793  0.2292 -0.1585 -0.0414
   57bbb     N2 1482   2.464   2.991   3.649 -0.0832  0.1941  0.0191
   57bbb     O1 1483   2.846   2.825   4.110  0.3468  0.0945 -0.4063
   57bbb     O2 1484   2.201   2.538   3.767 -0.2515  0.0735  0.1180
   57bbb     H1 1485   2.638   2.729   3.935 -1.9663 -2.4833 -1.0645
   57bbb     H2 1486   2.607   2.894   3.986 -1.3045  0.3836 -1.3598
   57bbb     H3 1487   2.415   2.598   4.070 -1.0647 -2.8616 -0.5556
   57bbb     H4 1488   2.418   2.598   3.888  1.0259  0.7584 -0.3279
   57bbb     H5 1489   2.551   2.792   4.214  2.1100  0.7464  0.5236
   57bbb     H6 1490   2.591   2.636   4.147 -1.9076  0.6218 -0.1676
   57bbb     H7 1491   2.169   2.718   3.979  1.5902  0.8908  0.7286
   57bbb     H8 1492   2.193   2.577   4.087 -3.0462  0.3690 -0.3820
   57bbb     H9 1493   2.311   2.819   3.804  0.1717  0.6008  0.9415
   57bbb    H10 1494   2.472   2.751   3.772 -0.0658 -1.6118  1.6314
   57bbb    H11 1495   2.570   2.981   3.817  0.2267 -0.5784  0.2113
   57bbb    H12 1496   2.413   3.048   3.848  0.5787 -0.3906  0.6318
   57bbb    H13 1497   2.369   2.995   3.613  0.2940  1.3658 -0.9326
   57bbb    H25 1498   2.376   2.852   4.022 -1.0532 -0.8170 -0.2496
   58bbb     N1 1499   5.030   2.764   2.015  0.5085  0.6085  0.1902
   58bbb     C1 1500   5.097   2.630   2.052  0.1942 -0.2805 -0.4097
   58bbb     C2 1501   4.939   2.745   1.897 -0.2613  0.1207  0.3015
   58bbb     C3 1502   5.005   2.523   2.122  0.1573 -0.3432 -0.0231
   58bbb     C4 1503   5.059   2.391   2.165 -0.8033  0.7040 -0.2802
   58bbb     C5 1504   5.001   2.691   1.766  0.7103 -0.1741  0.1616
   58bbb     C6 1505   4.910   2.691   1.645  0.2735 -0.0571 -0.7310
   58bbb     C7 1506   5.132   2.865   1.992 -0.4090 -0.2373 -0.1127
   58bbb     C8 1507   5.106   3.015   2.029 -0.8219  0.3972  0.4079
   58bbb     N2 1508   4.986   3.074   1.972 -0.4647  0.4711 -0.3048
   58bbb     O1 1509   5.130   2.320   2.096  0.1593  0.0078 -0.2032
   58bbb     O2 1510   4.871   2.798   1.594 -0.2667 -0.1673  0.2365
   58bbb     H1 1511   5.137   2.580   1.964  0.7625  0.1206 -0.3908
   58bbb     H2 1512   5.171   2.654   2.129 -1.5904  0.2063  1.2235
   58bbb     H3 1513   4.893   2.842   1.876  1.5768  1.4854  2.1851
   58bbb     H4 1514   4.861   2.678   1.932  1.0417 -1.5379  0.1838
   58bbb     H5 1515   4.958   2.572   2.208  0.7604  1.9502 -0.8958
   58bbb     H6 1516   4.917   2.507   2.059 -0.4489 -2.8301  1.3100
   58bbb     H7 1517   5.024   2.585   1.780 -0.5719 -0.4856 -0.0182
   58bbb     H8 1518   5.091   2.750   1.745  1.2486 -0.7408  0.8479
   58bbb     H9 1519   5.160   2.866   1.887  4.1464 -2.7716  0.8331
   58bbb    H10 1520   5.224   2.842   2.046 -1.3552  1.8979  2.6717
   58bbb    H11 1521   5.190   3.079   2.000 -0.8342  0.4282  0.4422
   58bbb    H12 1522   5.099   3.017   2.138  0.9930  0.4053  0.5556
   58bbb    H13 1523   4.932   3.133   2.036  0.6142  0.3820  0.7144
   58bbb    H25 1524   4.967   2.788   2.093 -1.6948 -2.4624 -0.4241
   59bbb     N1 1525   4.359   3.589   1.088 -0.2994 -0.1337 -0.0384
   59bbb     C1 1526   4.244   3.552   0.999  0.3113  0.3293 -1.0618
   59bbb     C2 1527   4.348   3.721   1.154 -0.0698  0.0625 -0.1165
   59bbb     C3 1528   4.248   3.405   0.940 -0.5168 -1.1687  0.4053
   59bbb     C4 1529   4.130   3.372   0.851 -0.5360 -0.9508 -1.2273
   59bbb     C5 1530   4.234   3.736   1.257  0.2697  0.0230  0.3525
   59bbb     C6 1531   4.245   3.876   1.319 -0.1987  0.3768  0.3533
   59bbb     C7 1532   4.486   3.582   1.010  0.5440 -0.4375 -0.3191
   59bbb     C8 1533   4.613   3.596   1.100 -0.1591  0.8216 -0.7473
   59bbb     N2 1534   4.638   3.499   1.211 -0.4904 -0.0558  0.2655
   59bbb     O1 1535   4.019   3.417   0.859 -0.3369 -0.1762  0.6396
   59bbb     O2 1536   4.201   3.977   1.261  0.0543 -0.0375 -0.1933
   59bbb     H1 1537   4.151   3.556   1.056  0.6325  2.9051 -0.5983
   59bbb     H2 1538   4.247   3.631   0.923  1.4107  1.7473  0.3845
   59bbb     H3 1539   4.314   3.793   1.078  0.4354  1.4186  0.9084
   59bbb     H4 1540   4.443   3.745   1.200 -0.8036  2.4499  0.2901
   59bbb     H5 1541   4.341   3.384   0.885 -0.8306 -2.4808  0.3426
   59bbb     H6 1542   4.260   3.328   1.017 -0.4216 -1.8127 -0.2396
   59bbb     H7 1543   4.249   3.663   1.337 -1.9714  1.2011  1.9771
   59bbb     H8 1544   4.137   3.716   1.211  0.0297 -3.2413  2.0454
   59bbb     H9 1545   4.486   3.671   0.947  0.0745 -0.5219 -0.4393
   59bbb    H10 1546   4.499   3.487   0.958  0.4648 -1.2822  1.1305
   59bbb    H11 1547   4.611   3.694   1.148  1.5122  0.7072 -0.3561
   59bbb    H12 1548   4.701   3.600   1.034 -1.4845  0.8587 -2.5643
   59bbb    H13 1549   4.554   3.474   1.261 -1.6565 -0.3800 -1.7179
   59bbb    H25 1550   4.375   3.516   1.159  2.7356 -0.6926 -1.1348
   60bbb     N1 1551   3.848   1.918   1.856 -0.1894  0.6553  0.1966
   60bbb     C1 1552   3.960   1.835   1.917  0.2029  0.3257  0.1330
   60bbb     C2 1553   3.757   1.830   1.773  0.8440  0.0797 -0.5208
   60bbb     C3 1554   4.078   1.910   1.987  0.1436  0.2602  0.1906
   60bbb     C4 1555   4.170   1.805   2.056  0.4772 -1.4716 -0.2987
   60bbb     C5 1556   3.721   1.682   1.809  0.4388 -0.5610  0.2753
   60bbb     C6 1557   3.621   1.615   1.713 -0.2404  0.7424 -0.6276
   60bbb     C7 1558   3.899   2.040   1.784  0.0207 -0.2502 -0.1824
   60bbb     C8 1559   3.804   2.155   1.769  0.4154 -0.6754  0.0666
   60bbb     N2 1560   3.868   2.288   1.730 -0.1560  0.5701  0.0720
   60bbb     O1 1561   4.202   1.707   1.996  0.4138 -0.3661 -0.2545
   60bbb     O2 1562   3.613   1.644   1.596  0.1676  0.7480  0.0157
   60bbb     H1 1563   3.927   1.773   2.001 -0.2715 -0.2339 -0.4576
   60bbb     H2 1564   3.985   1.766   1.836 -0.5111  0.3612 -0.1231
   60bbb     H3 1565   3.806   1.807   1.678 -0.3929 -2.9847 -0.5461
   60bbb     H4 1566   3.665   1.884   1.751  1.0111  0.5597 -0.0496
   60bbb     H5 1567   4.148   1.961   1.919  0.3935  0.9434  0.9407
   60bbb     H6 1568   4.034   1.981   2.059 -2.4105 -0.0387 -0.9694
   60bbb     H7 1569   3.685   1.672   1.912  2.9280 -2.4822  1.0512
   60bbb     H8 1570   3.814   1.624   1.814  1.5110  1.0010 -0.6272
   60bbb     H9 1571   3.927   2.002   1.685 -2.3567  1.4304 -1.6137
   60bbb    H10 1572   3.988   2.078   1.835  0.7271 -2.0653  0.0083
   60bbb    H11 1573   3.742   2.177   1.856 -0.3586  0.3865 -0.7269
   60bbb    H12 1574   3.737   2.118   1.691 -0.2625 -2.0977  1.2696
   60bbb    H13 1575   3.946   2.303   1.666 -0.8826 -1.6452 -1.4458
   60bbb    H25 1576   3.785   1.944   1.933 -2.2302 -1.4786 -0.6288
   61bbb     N1 1577   3.147   2.661   0.948 -0.1942 -0.1320  0.3344
   61bbb     C1 1578   3.063   2.545   0.900  0.1331  0.7020 -0.0233
   61bbb     C2 1579   3.278   2.675   0.869 -0.0455  0.5772  0.2348
   61bbb     C3 1580   3.112   2.399   0.938  0.4486  0.2696  0.4478
   61bbb     C4 1581   3.003   2.304   0.914  0.5581  0.1918 -0.2536
   61bbb     C5 1582   3.269   2.741   0.731 -0.4073 -0.0450  0.2297
   61bbb     C6 1583   3.406   2.733   0.664  0.0841 -0.0147  0.3553
   61bbb     C7 1584   3.173   2.650   1.097 -0.1888  0.6848  0.0574
   61bbb     C8 1585   3.220   2.780   1.171 -0.2725 -0.1064 -0.1318
   61bbb     N2 1586   3.306   2.748   1.280 -0.5025 -0.0682 -0.0663
   61bbb     O1 1587   2.933   2.300   0.813  0.3434  0.0501 -0.0040
   61bbb     O2 1588   3.501   2.789   0.709 -0.3420 -0.3262  0.3850
   61bbb     H1 1589   2.966   2.553   0.949 -0.8105  0.9593 -1.8376
   61bbb     H2 1590   3.039   2.562   0.795 -1.5217  2.1991  0.5320
   61bbb     H3 1591   3.315   2.574   0.850 -0.0847  0.9411 -2.0490
   61bbb     H4 1592   3.350   2.717   0.939  1.7152 -1.2259 -0.4153
   61bbb     H5 1593   3.197   2.363   0.880 -0.4701 -1.6437  0.2178
   61bbb     H6 1594   3.133   2.400   1.046  0.8024  0.3503  0.3799
   61bbb     H7 1595   3.240   2.847   0.730 -0.9259 -0.1864 -0.8249
   61bbb     H8 1596   3.198   2.686   0.669  0.0044 -1.4319  0.9225
   61bbb     H9 1597   3.238   2.563   1.106 -1.7325 -0.4505  0.7779
   61bbb    H10 1598   3.075   2.620   1.134  0.2435  0.7944  1.3508
   61bbb    H11 1599   3.129   2.826   1.211  0.4740 -1.3847  3.4870
   61bbb    H12 1600   3.266   2.849   1.100  1.4499 -2.1767 -1.1309
   61bbb    H13 1601   3.281   2.734   1.377  0.4034  0.7962  0.3096
   61bbb    H25 1602   3.093   2.746   0.924 -2.4503 -1.0622  1.7662
   62ccc     N1 1603   4.752   5.849   4.219  0.2200  0.0653 -0.0301
   62ccc     H4 1604   4.758   5.917   4.144 -2.2161  0.6093  0.1760
   62ccc     C3 1605   4.816   5.878   4.347 -0.1281  0.0741 -0.2758
   62ccc     C4 1606   4.708   5.929   4.452  1.0179  0.0792  0.2334
   62ccc     H5 1607   4.878   5.968   4.338 -1.3807  0.8009 -2.3824
   62ccc     H6 1608   4.867   5.791   4.390  1.3199  0.9424 -0.1732
   62ccc     H7 1609   4.759   5.959   4.544 -2.0167 -0.2124  2.1482
   62ccc     H8 1610   4.661   6.019   4.412  0.1458  0.2976  1.6760
   62ccc     N2 1611   4.596   5.823   4.469 -0.6324  0.0168 -0.1910
   62ccc     H9 1612   4.538   5.801   4.386 -1.7271 -0.2136  0.6102
   62ccc    H10 1613   4.631   5.737   4.513 -1.7687 -0.9806 -1.1646
   62ccc    H11 1614   4.532   5.850   4.546  1.9190  1.9687  1.4049
   63ccc     N1 1615   4.909   5.273   3.814 -0.1648  0.6701  0.8782
   63ccc     H4 1616   4.878   5.311   3.903 -0.7130  0.0294  0.9678
   63ccc     C3 1617   5.040   5.203   3.792 -0.9651  0.2184 -0.2083
   63ccc     C4 1618   5.132   5.208   3.924 -1.2200  0.4490 -0.3299
   63ccc     H5 1619   5.092   5.257   3.712  0.1561 -0.0872  0.2889
   63ccc     H6 1620   5.028   5.099   3.758  2.6169 -0.5069  0.3077
   63ccc     H7 1621   5.196   5.297   3.921  0.4302 -0.7211 -1.6564
   63ccc     H8 1622   5.067   5.204   4.012  0.1292  0.8339  0.7075
   63ccc     N2 1623   5.239   5.105   3.944  0.1221 -0.1381  0.0943
   63ccc     H9 1624   5.300   5.125   4.025  2.0155 -1.6642 -0.8763
   63ccc    H10 1625   5.191   5.017   3.966  0.5218 -1.1354 -2.6471
   63ccc    H11 1626   5.291   5.095   3.855 -1.0332  0.0712 -0.6212
   64ccc     N1 1627   4.538   6.765   2.581 -0.2770  0.2295 -0.4182
   64ccc     H4 1628   4.615   6.728   2.527 -0.0732  1.1430 -0.7720
   64ccc     C3 1629   4.483   6.902   2.557  0.0965 -0.0209  0.4729
   64ccc     C4 1630   4.415   6.904   2.416  0.4458 -0.0223 -0.7391
   64ccc     H5 1631   4.566   6.974   2.555 -0.4424  0.7238  2.4577
   64ccc     H6 1632   4.417   6.933   2.639 -0.0647  1.2458 -0.1023
   64ccc     H7 1633   4.335   6.830   2.405 -0.8105  1.3409 -1.1349
   64ccc     H8 1634   4.384   7.008   2.412  2.5612  0.9228  2.9214
   64ccc     N2 1635   4.499   6.885   2.288 -0.2494  0.0648  0.1744
   64ccc     H9 1636   4.454   6.858   2.200 -0.8139 -0.1168  0.5186
   64ccc    H10 1637   4.551   6.972   2.266  1.7663 -1.0670  0.2612
   64ccc    H11 1638   4.562   6.807   2.310 -0.3435 -0.2164 -0.5343
   65ccc     N1 1639   4.176   6.551   3.235 -0.5447  0.3911 -0.8882
   65ccc     H4 1640   4.243   6.625   3.216  0.8026 -0.6849 -0.5395
   65ccc     C3 1641   4.125   6.529   3.373  0.5327 -0.8706  0.1800
   65ccc     C4 1642   4.125   6.651   3.463 -0.4030  1.2342 -0.6038
   65ccc     H5 1643   4.178   6.445   3.420  1.3624 -0.4220  0.0591
   65ccc     H6 1644   4.018   6.508   3.364  0.6865 -2.0889  1.0095
   65ccc     H7 1645   4.105   6.741   3.405 -1.1566  1.2329 -0.3594
   65ccc     H8 1646   4.054   6.640   3.545 -0.3760  1.3670 -0.5620
   65ccc     N2 1647   4.259   6.683   3.531  0.3781 -0.4544  0.1082
   65ccc     H9 1648   4.236   6.770   3.580 -2.9573 -1.3939  0.4668
   65ccc    H10 1649   4.281   6.610   3.600 -2.3005 -0.6528  0.8912
   65ccc    H11 1650   4.337   6.694   3.464  0.3291 -0.0922  0.1086
   66ccc     N1 1651   5.664   4.303   3.413  0.0744  0.3282 -0.6657
   66ccc     H4 1652   5.653   4.212   3.370  3.4190 -0.0898 -0.9056
   66ccc     C3 1653   5.799   4.340   3.471  0.5897 -0.2439 -0.4821
   66ccc     C4 1654   5.801   4.332   3.620 -0.5002 -0.1002 -0.0673
   66ccc     H5 1655   5.815   4.445   3.446 -2.3677 -0.3209 -3.2871
   66ccc     H6 1656   5.885   4.294   3.421  0.4303  1.3238 -2.3007
   66ccc     H7 1657   5.737   4.415   3.653 -1.0022  0.4212 -2.2273
   66ccc     H8 1658   5.776   4.229   3.643  2.1381 -0.3365  2.2552
   66ccc     N2 1659   5.943   4.367   3.684 -0.4429 -0.1606  0.4129
   66ccc     H9 1660   6.024   4.311   3.657 -1.2359 -1.7531  1.2274
   66ccc    H10 1661   5.977   4.462   3.660  0.8350 -0.2976  1.6198
   66ccc    H11 1662   5.943   4.368   3.787  0.1676 -0.0620  0.4112
   67ccc     N1 1663   4.958   4.091   3.795 -0.4052  0.0431 -0.0414
   67ccc     H4 1664   4.880   4.155   3.785  0.0765  0.7749  0.7772
   67ccc     C3 1665   4.972   4.026   3.928 -0.3645  0.7076  0.3077
   67ccc     C4 1666   5.051   4.120   4.027 -0.4730  0.0455 -0.1734
   67ccc     H5 1667   5.019   3.928   3.915 -3.5738 -0.6394 -2.7082
   67ccc     H6 1668   4.871   4.003   3.963 -0.4515  0.8667  0.1661
   67ccc     H7 1669   5.135   4.152   3.966 -3.2924  2.5017 -3.1453
   67ccc     H8 1670   4.996   4.204   4.068 -1.2458 -0.1505 -0.7823
   67ccc     N2 1671   5.110   4.058   4.156  0.4014  0.0013 -0.1892
   67ccc     H9 1672   5.040   4.037   4.228 -1.4290  1.4009 -1.4768
   67ccc    H10 1673   5.163   3.974   4.127 -3.1671 -1.7117 -2.4676
   67ccc    H11 1674   5.177   4.116   4.208  1.4282  0.4569 -1.9270
   68ccc     N1 1675   4.909   3.713   2.505  0.8775 -0.0098 -0.3625
   68ccc     H4 1676   4.898   3.766   2.420  0.8588  1.3002  0.4261
   68ccc     C3 1677   5.031   3.630   2.527  0.2013 -0.4790 -0.0944
   68ccc     C4 1678   5.151   3.691   2.461  0.1226  0.4413 -0.4133
   68ccc     H5 1679   5.018   3.530   2.485  0.1009 -0.6496  0.3383
   68ccc     H6 1680   5.049   3.607   2.633 -0.6245 -0.6803  0.0154
   68ccc     H7 1681   5.188   3.780   2.513  2.9092  0.4062 -2.1316
   68ccc     H8 1682   5.223   3.610   2.448  0.1574  0.8627 -3.5294
   68ccc     N2 1683   5.130   3.721   2.315 -0.3352 -0.6656  1.9444
   68ccc     H9 1684   5.212   3.769   2.274 -0.7850 -0.6094  1.0873
   68ccc    H10 1685   5.118   3.632   2.264  1.8023  0.6006 -1.1233
   68ccc    H11 1686   5.054   3.787   2.293  1.1260  0.7816  0.8843
   69ccc     N1 1687   4.515   3.720   3.156 -0.4618  0.1332  0.5049
   69ccc     H4 1688   4.416   3.696   3.156 -0.0422 -1.9207 -1.1800
   69ccc     C3 1689   4.597   3.700   3.280  0.2911  0.5560  0.2625
   69ccc     C4 1690   4.500   3.674   3.395 -0.2683 -0.9123 -0.1509
   69ccc     H5 1691   4.659   3.790   3.288  1.7365 -0.4445  0.5743
   69ccc     H6 1692   4.658   3.610   3.268 -0.8354 -0.3947  1.4356
   69ccc     H7 1693   4.556   3.689   3.488  2.1205 -1.6017 -1.4006
   69ccc     H8 1694   4.424   3.751   3.388  1.0474  0.5127  0.5873
   69ccc     N2 1695   4.431   3.538   3.397  0.4254 -0.1962 -0.4305
   69ccc     H9 1696   4.361   3.535   3.473 -1.7833  3.4000 -2.0530
   69ccc    H10 1697   4.377   3.521   3.311 -1.6096  1.6500  0.3738
   69ccc    H11 1698   4.498   3.464   3.420 -1.1982 -2.1863 -1.7154
   70ccc     N1 1699   3.034   6.494   3.857  0.3027 -0.0241  0.0336
   70ccc     H4 1700   3.094   6.508   3.938 -0.7291  1.9962  0.5126
   70ccc     C3 1701   2.892   6.473   3.883 -0.2545  0.2203 -0.4539
   70ccc     C4 1702   2.803   6.607   3.894 -0.1272  0.3756  1.0362
   70ccc     H5 1703   2.874   6.421   3.978 -1.1475  3.2434  1.1630
   70ccc     H6 1704   2.845   6.404   3.812  0.6763 -0.5947 -0.3051
   70ccc     H7 1705   2.832   6.656   3.801  1.6110 -0.2418  1.2171
   70ccc     H8 1706   2.697   6.579   3.899  0.1024 -0.8877 -0.3631
   70ccc     N2 1707   2.835   6.700   4.006 -0.0443 -0.1681  0.5812
   70ccc     H9 1708   2.793   6.795   4.005 -0.4364 -0.3226  1.3631
   70ccc    H10 1709   2.797   6.661   4.093 -1.7293 -0.3984 -0.2079
   70ccc    H11 1710   2.937   6.705   4.015  0.0478 -1.8388  0.6310
   71ccc     N1 1711   3.708   6.985   3.607 -0.1806  0.1779 -0.2696
   71ccc     H4 1712   3.764   6.944   3.533  0.1895  0.5009 -0.1770
   71ccc     C3 1713   3.731   7.121   3.660  0.4100 -0.0913 -0.7744
   71ccc     C4 1714   3.762   7.217   3.543  0.0999 -0.0967 -0.0691
   71ccc     H5 1715   3.812   7.117   3.734  0.3695  0.8704 -0.6607
   71ccc     H6 1716   3.649   7.160   3.721  1.0588 -0.0766  0.1158
   71ccc     H7 1717   3.758   7.319   3.581 -0.2840 -0.4234  0.7990
   71ccc     H8 1718   3.865   7.204   3.510  0.5281 -1.4334  1.6325
   71ccc     N2 1719   3.670   7.218   3.427  0.7468 -0.1214  0.6370
   71ccc     H9 1720   3.692   7.291   3.357 -1.6065 -0.1337 -0.1920
   71ccc    H10 1721   3.689   7.133   3.371  0.2724 -0.1838  0.5652
   71ccc    H11 1722   3.571   7.232   3.449  0.6995  2.2772 -0.7098
   72ccc     N1 1723   2.705   6.676   2.896  0.2027  0.4294 -0.4191
   72ccc     H4 1724   2.617   6.725   2.901  0.7018  1.2225  1.1779
   72ccc     C3 1725   2.769   6.656   3.027 -1.4250  0.6649 -0.6026
   72ccc     C4 1726   2.711   6.765   3.127  0.1957  0.0647 -0.2247
   72ccc     H5 1727   2.875   6.675   3.010 -1.4514  0.5748 -0.8773
   72ccc     H6 1728   2.758   6.557   3.072  2.1504  0.8557  0.9965
   72ccc     H7 1729   2.752   6.731   3.223 -0.9201 -1.3201 -0.2072
   72ccc     H8 1730   2.749   6.867   3.115 -0.2723  0.3022  0.2672
   72ccc     N2 1731   2.560   6.765   3.149 -0.4645  0.3318  0.0856
   72ccc     H9 1732   2.528   6.828   3.224 -2.8827 -0.8959  0.1740
   72ccc    H10 1733   2.511   6.796   3.064  1.4050 -0.5516 -1.3944
   72ccc    H11 1734   2.527   6.669   3.166  0.5831 -0.1951 -0.6973
   73ccc     N1 1735   2.537   6.687   2.020  0.0212  0.4770  0.0297
   73ccc     H4 1736   2.634   6.670   1.996  0.2447  0.5358  0.8769
   73ccc     C3 1737   2.433   6.606   1.958  0.3903 -0.2600  0.0926
   73ccc     C4 1738   2.313   6.679   1.893 -0.6708  0.3698 -0.2604
   73ccc     H5 1739   2.386   6.550   2.040  3.5232 -0.9043  1.6345
   73ccc     H6 1740   2.469   6.541   1.878 -0.7465  0.9083 -1.4227
   73ccc     H7 1741   2.334   6.721   1.795 -1.5085  0.8518 -0.2436
   73ccc     H8 1742   2.233   6.606   1.877 -0.8046 -0.1808  2.4325
   73ccc     N2 1743   2.240   6.779   1.984 -0.4939  0.6957  0.0242
   73ccc     H9 1744   2.298   6.855   2.022  0.3354 -0.8330  1.9657
   73ccc    H10 1745   2.162   6.825   1.935  0.5151  1.6286 -0.7436
   73ccc    H11 1746   2.209   6.727   2.068  0.0980 -0.0687 -0.2278
   74ccc     N1 1747   1.924   5.229   3.733 -0.0623 -0.1454 -0.2761
   74ccc     H4 1748   1.951   5.324   3.709 -2.5616  0.5255 -0.7123
   74ccc     C3 1749   1.779   5.199   3.739  1.0974 -0.3799  0.1477
   74ccc     C4 1750   1.747   5.096   3.634  0.4165 -0.7262 -0.5444
   74ccc     H5 1751   1.715   5.287   3.722 -1.7575 -1.9309  1.9724
   74ccc     H6 1752   1.751   5.157   3.836 -0.2847  0.3571  0.0952
   74ccc     H7 1753   1.786   5.150   3.548  1.4300  0.3724  0.5471
   74ccc     H8 1754   1.806   5.007   3.652  1.9927  0.4118  0.1698
   74ccc     N2 1755   1.603   5.061   3.615 -0.5531  0.0161 -0.1056
   74ccc     H9 1756   1.579   4.983   3.553 -1.1655  0.9733 -1.1088
   74ccc    H10 1757   1.556   5.028   3.700  0.5894 -1.0354  0.1405
   74ccc    H11 1758   1.546   5.132   3.567 -2.4856 -1.0980  0.4545
   75ccc     N1 1759   2.544   4.809   4.199  0.1421 -0.6035  0.9587
   75ccc     H4 1760   2.454   4.769   4.174 -0.5050  1.1075  0.4372
   75ccc     C3 1761   2.656   4.733   4.264 -0.5708  0.7646  0.0244
   75ccc     C4 1762   2.621   4.679   4.405 -0.1810 -0.0716  0.3077
   75ccc     H5 1763   2.749   4.792   4.262 -0.1911  0.2323  1.3296
   75ccc     H6 1764   2.688   4.644   4.209  0.0594 -1.0274  3.0491
   75ccc     H7 1765   2.513   4.664   4.397 -0.0662  0.0026 -2.1174
   75ccc     H8 1766   2.666   4.580   4.413  1.7905  0.7147 -0.3882
   75ccc     N2 1767   2.637   4.771   4.524 -0.0181  0.9680 -0.1773
   75ccc     H9 1768   2.736   4.783   4.549  0.1351  0.5474 -0.5716
   75ccc    H10 1769   2.601   4.865   4.501 -0.7629  0.4650 -1.1281
   75ccc    H11 1770   2.599   4.729   4.611  1.9961 -0.1054  0.2312
   76ccc     N1 1771   1.974   6.663   3.785 -0.5982 -0.1410 -0.1371
   76ccc     H4 1772   1.881   6.623   3.774 -0.5299 -0.5334  0.6783
   76ccc     C3 1773   2.026   6.729   3.664  0.3092  0.4781 -0.0252
   76ccc     C4 1774   2.044   6.876   3.684  0.4413 -0.4092 -1.1896
   76ccc     H5 1775   1.945   6.717   3.591  1.2359  1.2054 -1.2145
   76ccc     H6 1776   2.112   6.682   3.614  0.4039 -1.0156  1.4673
   76ccc     H7 1777   2.099   6.895   3.776 -0.8364 -1.9172 -0.0607
   76ccc     H8 1778   2.110   6.914   3.605  1.9684  0.3221  0.3697
   76ccc     N2 1779   1.923   6.963   3.691  0.6299 -0.2029 -0.2543
   76ccc     H9 1780   1.874   6.956   3.601 -3.5433 -0.6968  1.7973
   76ccc    H10 1781   1.856   6.942   3.767  0.0125  0.3576 -0.6300
   76ccc    H11 1782   1.945   7.064   3.694 -0.4857  0.1779 -2.5380
   77ccc     N1 1783   1.739   6.259   4.527 -0.1789 -0.5165 -0.2732
   77ccc     H4 1784   1.823   6.265   4.584 -1.5993  1.1512  1.8198
   77ccc     C3 1785   1.620   6.296   4.602  0.7003 -0.1521 -0.0478
   77ccc     C4 1786   1.523   6.183   4.608 -0.5758 -0.3562 -0.8591
   77ccc     H5 1787   1.576   6.383   4.552 -0.2568  0.2378  1.3875
   77ccc     H6 1788   1.643   6.337   4.701 -0.6667 -1.7082  0.9621
   77ccc     H7 1789   1.527   6.127   4.514  1.0027 -1.4674 -0.1859
   77ccc     H8 1790   1.554   6.117   4.689 -2.5106 -1.1974 -0.7429
   77ccc     N2 1791   1.383   6.229   4.641  0.2825  0.0774  0.9540
   77ccc     H9 1792   1.307   6.161   4.635  0.0838  0.4357 -2.6386
   77ccc    H10 1793   1.377   6.268   4.737  0.9178  5.1926 -0.7638
   77ccc    H11 1794   1.361   6.315   4.588 -0.7762  0.0989  1.3859
   78ccc     N1 1795   2.092   3.994   0.322 -0.2525 -0.6175 -0.1164
   78ccc     H4 1796   2.087   3.969   0.224 -0.5207 -1.5696  0.1292
   78ccc     C3 1797   2.005   3.924   0.421  0.2182 -0.1860 -0.3679
   78ccc     C4 1798   2.072   3.814   0.500 -0.0156  0.0848 -0.5946
   78ccc     H5 1799   1.923   3.880   0.363  1.2775 -0.1814 -1.9299
   78ccc     H6 1800   1.966   3.989   0.500  1.0879  0.3945 -0.3973
   78ccc     H7 1801   2.152   3.853   0.563  1.1759 -0.2703 -1.8325
   78ccc     H8 1802   1.996   3.765   0.561 -0.3306  0.6593 -0.5248
   78ccc     N2 1803   2.125   3.704   0.410 -0.1601 -1.2128  0.2875
   78ccc     H9 1804   2.202   3.749   0.359  0.1463 -1.4087  0.5753
   78ccc    H10 1805   2.155   3.620   0.461  1.8206  0.0722  1.3516
   78ccc    H11 1806   2.054   3.665   0.346 -0.3428  1.2500 -1.1438
   79ccc     N1 1807   2.914   4.127   0.370 -0.0063  0.7635 -0.3404
   79ccc     H4 1808   2.944   4.091   0.280  4.7442 -0.4002  1.4157
   79ccc     C3 1809   3.006   4.104   0.484  0.0134 -0.5603  0.4638
   79ccc     C4 1810   3.155   4.153   0.463 -0.1527 -0.4025 -0.3548
   79ccc     H5 1811   3.001   3.999   0.513 -0.6465 -0.4487  0.7574
   79ccc     H6 1812   2.971   4.152   0.576  2.9096  1.7875  0.5216
   79ccc     H7 1813   3.195   4.152   0.565 -0.7202  1.0631 -0.0906
   79ccc     H8 1814   3.213   4.102   0.386  0.9235 -0.3493  0.3790
   79ccc     N2 1815   3.173   4.295   0.411 -0.5753  0.5451 -0.4727
   79ccc     H9 1816   3.163   4.306   0.309  0.3986  0.5563 -0.5791
   79ccc    H10 1817   3.109   4.359   0.461  0.6702  0.0228  1.9324
   79ccc    H11 1818   3.268   4.325   0.437 -0.5775 -1.3632  2.2264
   80ccc     N1 1819   1.619   4.718  -0.762 -0.2945  0.8506  0.2862
   80ccc     H4 1820   1.697   4.773  -0.795  1.3187 -1.3625  0.2027
   80ccc     C3 1821   1.587   4.584  -0.830  0.1965  0.2659  0.0964
   80ccc     C4 1822   1.710   4.530  -0.924  0.6675 -0.8724  0.5832
   80ccc     H5 1823   1.500   4.603  -0.894  2.6538  3.5956 -2.6899
   80ccc     H6 1824   1.569   4.504  -0.757  1.5516 -1.1809 -1.0865
   80ccc     H7 1825   1.693   4.429  -0.960  1.8156 -0.7292 -0.3978
   80ccc     H8 1826   1.716   4.600  -1.008 -1.4283 -0.1401  0.9748
   80ccc     N2 1827   1.838   4.527  -0.851 -0.1868 -0.1453 -0.0538
   80ccc     H9 1828   1.894   4.473  -0.918 -2.8351 -0.8856 -1.8467
   80ccc    H10 1829   1.867   4.625  -0.843 -1.2619  0.1193  0.9152
   80ccc    H11 1830   1.829   4.477  -0.761  1.6896  0.2381  0.3906
   81ccc     N1 1831   1.154   5.146  -0.225 -0.0016  0.2592 -0.4861
   81ccc     H4 1832   1.092   5.119  -0.300 -0.2764 -1.3303  0.2728
   81ccc     C3 1833   1.113   5.199  -0.095  0.0290  0.2600 -0.0061
   81ccc     C4 1834   1.172   5.339  -0.071 -0.2211 -0.0310  0.6282
   81ccc     H5 1835   1.149   5.133  -0.015  1.2694  2.6961  1.5415
   81ccc     H6 1836   1.003   5.196  -0.099  0.0346 -1.0370  0.3325
   81ccc     H7 1837   1.279   5.347  -0.086 -0.0410 -0.5752  1.5586
   81ccc     H8 1838   1.125   5.409  -0.141  1.0409 -1.7652 -2.1402
   81ccc     N2 1839   1.146   5.378   0.070 -0.0486  0.1949  0.5178
   81ccc     H9 1840   1.054   5.339   0.096  0.3357 -1.7698 -0.8600
   81ccc    H10 1841   1.219   5.356   0.139  0.9547  2.6964  0.3499
   81ccc    H11 1842   1.132   5.480   0.078 -0.7948  0.2517 -1.0536
   82ccc     N1 1843   2.267   7.367   1.263  0.3053  0.7719  0.4324
   82ccc     H4 1844   2.187   7.309   1.284  1.3791 -0.0663  2.5127
   82ccc     C3 1845   2.281   7.480   1.349  1.5813 -0.3432 -0.2547
   82ccc     C4 1846   2.142   7.526   1.411 -0.0070  0.0425 -0.0923
   82ccc     H5 1847   2.323   7.564   1.292  1.5661 -1.3018 -1.7494
   82ccc     H6 1848   2.344   7.454   1.435  1.2747  2.4899  0.9423
   82ccc     H7 1849   2.080   7.563   1.329  1.8479 -1.1096 -2.1195
   82ccc     H8 1850   2.098   7.439   1.460  0.3955  0.2256  0.6038
   82ccc     N2 1851   2.142   7.633   1.517  0.2962 -0.3360 -0.4492
   82ccc     H9 1852   2.052   7.665   1.555  1.3559 -0.8750  2.8891
   82ccc    H10 1853   2.185   7.594   1.602 -2.4186  0.4042  1.3607
   82ccc    H11 1854   2.208   7.705   1.486  0.3769 -0.3320 -0.2712
   83ccc     N1 1855   2.856   7.371   1.209 -0.3825  0.0592  0.2766
   83ccc     H4 1856   2.781   7.426   1.169 -1.3332 -0.8698  0.7278
   83ccc     C3 1857   2.953   7.431   1.307 -0.6823 -0.8473 -0.5126
   83ccc     C4 1858   2.931   7.583   1.359  0.2352  0.0731  0.0523
   83ccc     H5 1859   3.056   7.421   1.270  0.1319 -3.5534  2.0660
   83ccc     H6 1860   2.962   7.368   1.396  1.4531  0.3413  0.1993
   83ccc     H7 1861   2.846   7.588   1.427 -0.6193  1.0770 -1.0527
   83ccc     H8 1862   3.022   7.624   1.404 -0.6716  1.0303  1.0618
   83ccc     N2 1863   2.881   7.677   1.246 -0.0924  0.5463  0.4004
   83ccc     H9 1864   2.927   7.665   1.155 -1.3958  0.2903 -0.2439
   83ccc    H10 1865   2.782   7.652   1.234  0.3398  0.2519 -3.6541
   83ccc    H11 1866   2.882   7.775   1.278 -2.4597  0.8051 -0.1368
   84ccc     N1 1867   2.409   6.603  -0.178  0.1374  0.5900  0.0754
   84ccc     H4 1868   2.471   6.604  -0.098  1.9728  0.4498 -1.2978
   84ccc     C3 1869   2.291   6.690  -0.174 -0.1825 -0.4345  0.5655
   84ccc     C4 1870   2.290   6.770  -0.046  0.2076 -0.4415  0.5534
   84ccc     H5 1871   2.194   6.639  -0.180 -1.4051  1.8682 -2.7519
   84ccc     H6 1872   2.287   6.757  -0.261  0.3065 -1.1212  0.0105
   84ccc     H7 1873   2.273   6.714   0.047 -3.6171  1.0459  0.9222
   84ccc     H8 1874   2.384   6.826  -0.052 -0.7740  1.2091 -0.0495
   84ccc     N2 1875   2.167   6.866  -0.044 -0.1620  0.1647  0.4719
   84ccc     H9 1876   2.182   6.917  -0.133  0.7013 -0.7343  0.0719
   84ccc    H10 1877   2.075   6.821  -0.054 -0.7245  1.2267  0.7572
   84ccc    H11 1878   2.153   6.921   0.041 -0.6289 -0.4705  0.8122
   85ccc     N1 1879   2.854   5.916  -0.331  0.3017  0.0419  0.2696
   85ccc     H4 1880   2.805   5.878  -0.411  1.8489  0.9302 -1.1649
   85ccc     C3 1881   2.990   5.970  -0.361  1.0879  0.3621 -0.7702
   85ccc     C4 1882   3.013   6.003  -0.509  0.3197 -0.0298  0.4488
   85ccc     H5 1883   3.070   5.909  -0.317  0.0001  0.4803  1.5286
   85ccc     H6 1884   2.992   6.068  -0.311 -0.7124  0.9315 -1.7418
   85ccc     H7 1885   2.957   6.093  -0.536  1.0252  0.0708 -0.7292
   85ccc     H8 1886   3.116   6.031  -0.534  0.7020 -1.9518 -0.2866
   85ccc     N2 1887   2.991   5.888  -0.606  0.2187 -0.2282 -0.0158
   85ccc     H9 1888   3.047   5.903  -0.691 -0.4705  2.1541 -0.1178
   85ccc    H10 1889   3.018   5.800  -0.558  2.0078  0.2675 -0.0249
   85ccc    H11 1890   2.890   5.876  -0.624  0.3238 -0.7862 -0.2425
   86ccc     N1 1891   1.071   4.108   2.503 -0.0079  0.5520  0.0850
   86ccc     H4 1892   1.075   4.130   2.405 -0.6941  1.4960  0.2616
   86ccc     C3 1893   1.182   4.045   2.583  0.3136 -0.2450 -0.6008
   86ccc     C4 1894   1.279   4.145   2.658  0.1753  0.1429 -0.2293
   86ccc     H5 1895   1.231   3.985   2.506 -1.7693 -2.1466 -0.5592
   86ccc     H6 1896   1.134   3.970   2.648  0.8541 -1.6711 -1.7963
   86ccc     H7 1897   1.376   4.099   2.677  1.3853  2.0174 -1.4499
   86ccc     H8 1898   1.297   4.232   2.595  2.2582  0.5741  0.8592
   86ccc     N2 1899   1.241   4.221   2.784  0.5163 -0.4215  0.9228
   86ccc     H9 1900   1.164   4.285   2.759  1.2725  0.0206 -0.3890
   86ccc    H10 1901   1.194   4.153   2.845  0.3006 -1.9539 -0.8488
   86ccc    H11 1902   1.318   4.277   2.824  0.3937  1.0196 -0.7327
   87ccc     N1 1903   0.927   4.364   3.100 -0.6102  0.6675  0.5563
   87ccc     H4 1904   0.848   4.388   3.159 -0.6125  1.1399  0.3617
   87ccc     C3 1905   1.047   4.310   3.163 -0.6269  0.1559  0.7995
   87ccc     C4 1906   1.045   4.161   3.187 -0.6195 -0.1106 -0.4927
   87ccc     H5 1907   1.052   4.349   3.265 -0.1952 -1.4398  1.4168
   87ccc     H6 1908   1.139   4.328   3.106  0.3833  0.2490  2.3955
   87ccc     H7 1909   1.019   4.106   3.097 -1.2513 -1.4835  0.5045
   87ccc     H8 1910   1.141   4.123   3.222 -0.2789  2.3175  1.5048
   87ccc     N2 1911   0.934   4.112   3.277 -0.4513  0.1981 -0.2266
   87ccc     H9 1912   0.846   4.137   3.229 -1.5991 -1.3241  0.9611
   87ccc    H10 1913   0.942   4.010   3.291 -0.2163  0.3014  0.4337
   87ccc    H11 1914   0.934   4.160   3.368 -2.2943  0.3810 -0.2867
   88ccc     N1 1915   0.134   5.849   2.418  0.0544 -0.1742  0.0230
   88ccc     H4 1916   0.126   5.785   2.340  0.7070  0.3025 -0.4540
   88ccc     C3 1917   0.060   5.814   2.548 -0.2202 -0.8140 -0.1510
   88ccc     C4 1918  -0.030   5.924   2.609 -0.2609 -0.2851  0.6723
   88ccc     H5 1919   0.127   5.784   2.629 -0.4045  0.3915  0.4664
   88ccc     H6 1920  -0.002   5.727   2.522 -0.9409  0.6268 -3.8968
   88ccc     H7 1921  -0.102   5.880   2.678 -0.6766 -0.7160 -0.0210
   88ccc     H8 1922   0.023   5.987   2.680  0.6559 -2.6187  2.1486
   88ccc     N2 1923  -0.111   5.999   2.498  0.5895  0.3339 -0.4123
   88ccc     H9 1924  -0.172   5.934   2.445  1.1271 -1.1349  0.7122
   88ccc    H10 1925  -0.173   6.060   2.555 -0.3534 -0.6987 -0.2930
   88ccc    H11 1926  -0.052   6.054   2.434  0.3772  2.2576  0.9587
   89ccc     N1 1927   0.656   6.473   2.551 -0.0518  0.4889  0.1251
   89ccc     H4 1928   0.578   6.452   2.613 -0.7307  1.3803 -0.4037
   89ccc     C3 1929   0.673   6.618   2.510  0.1977  0.0913  0.1563
   89ccc     C4 1930   0.820   6.662   2.550  0.4818 -0.3152  0.2651
   89ccc     H5 1931   0.600   6.684   2.558 -0.7488 -1.3750  0.8000
   89ccc     H6 1932   0.668   6.633   2.402  1.9129  2.8556  0.3500
   89ccc     H7 1933   0.832   6.770   2.538 -0.1098 -0.3168 -0.4388
   89ccc     H8 1934   0.834   6.648   2.657 -0.8400  0.8197  0.6153
   89ccc     N2 1935   0.925   6.581   2.478 -0.3540 -0.0079 -0.5765
   89ccc     H9 1936   1.011   6.586   2.535 -1.6494  2.1277  1.3387
   89ccc    H10 1937   0.901   6.482   2.466 -0.4801 -0.1122  0.4226
   89ccc    H11 1938   0.949   6.619   2.385 -0.7591  0.7749 -0.3740
   90ccc     N1 1939   0.498   5.372   0.881  0.0881 -0.3884 -0.2359
   90ccc     H4 1940   0.539   5.341   0.968 -0.8596  0.6719  0.6071
   90ccc     C3 1941   0.373   5.310   0.839  0.4825  0.6145 -0.2291
   90ccc     C4 1942   0.279   5.270   0.955 -0.2364 -0.2128 -0.3386
   90ccc     H5 1943   0.379   5.224   0.771 -5.1126 -0.3678  0.0065
   90ccc     H6 1944   0.308   5.386   0.792 -2.1825  0.0177  2.2253
   90ccc     H7 1945   0.257   5.366   1.000 -0.9548 -0.2590 -0.5751
   90ccc     H8 1946   0.185   5.238   0.909  0.2915  0.9657 -2.3626
   90ccc     N2 1947   0.328   5.169   1.053  0.3002  0.2907 -0.1563
   90ccc     H9 1948   0.405   5.212   1.107 -1.1913  1.0483  1.4861
   90ccc    H10 1949   0.251   5.155   1.120  0.3972 -0.5229 -0.2074
   90ccc    H11 1950   0.354   5.082   1.005 -1.5836 -1.4715  1.7826
   91ccc     N1 1951   0.897   5.853   1.450 -0.1011 -0.7705  0.1647
   91ccc     H4 1952   0.948   5.939   1.436 -0.7799 -0.2762  0.6511
   91ccc     C3 1953   0.948   5.761   1.553  0.3714  0.3519 -0.0944
   91ccc     C4 1954   1.053   5.822   1.653  0.1139  0.2657  0.2328
   91ccc     H5 1955   0.987   5.671   1.504 -0.4485  0.0419 -0.1908
   91ccc     H6 1956   0.861   5.725   1.610  0.9708 -0.2035  0.4875
   91ccc     H7 1957   1.071   5.745   1.728 -3.4177  0.3998  1.3846
   91ccc     H8 1958   1.149   5.838   1.602 -0.4828  1.2774 -0.6167
   91ccc     N2 1959   1.003   5.946   1.731 -0.1075  0.4613 -0.1891
   91ccc     H9 1960   0.921   5.918   1.788  1.5788  0.3606  2.3341
   91ccc    H10 1961   1.063   5.989   1.803  1.5695 -0.3158 -1.0905
   91ccc    H11 1962   0.967   6.018   1.667  1.3953  0.0498 -1.5449
   92ccc     N1 1963   1.319   4.221   1.191  0.2146 -0.3474 -0.5233
   92ccc     H4 1964   1.293   4.128   1.160  1.6843 -0.6773 -0.8913
   92ccc     C3 1965   1.463   4.249   1.236  0.0401  0.4109 -0.1398
   92ccc     C4 1966   1.520   4.111   1.301 -0.4319 -0.3637  0.9902
   92ccc     H5 1967   1.452   4.325   1.314 -0.6361 -1.5549  1.7956
   92ccc     H6 1968   1.523   4.293   1.156 -0.2673 -1.0533 -1.2182
   92ccc     H7 1969   1.452   4.072   1.376  0.3984  0.1897  2.0574
   92ccc     H8 1970   1.541   4.040   1.220 -1.4507  0.1872  0.2333
   92ccc     N2 1971   1.657   4.139   1.367 -1.0748  0.0760 -0.4136
   92ccc     H9 1972   1.652   4.225   1.423 -1.6736 -0.1448 -0.1222
   92ccc    H10 1973   1.685   4.061   1.427 -0.6706 -0.0232 -0.7243
   92ccc    H11 1974   1.734   4.163   1.303  1.4660  1.4550  2.9000
   93ccc     N1 1975   0.421   4.437   1.273  0.2507 -0.5093  0.6681
   93ccc     H4 1976   0.420   4.492   1.188  1.2633 -1.8094 -0.2165
   93ccc     C3 1977   0.298   4.449   1.356  0.0713 -0.5296 -0.2911
   93ccc     C4 1978   0.176   4.498   1.278 -0.0640 -0.5795  0.7143
   93ccc     H5 1979   0.309   4.508   1.449  0.0652  2.0051 -1.8018
   93ccc     H6 1980   0.275   4.346   1.385 -0.4922 -0.6344 -1.0793
   93ccc     H7 1981   0.095   4.498   1.351 -0.8471 -2.3688 -0.0868
   93ccc     H8 1982   0.192   4.594   1.229 -1.3837 -1.1763 -1.0163
   93ccc     N2 1983   0.135   4.402   1.168  0.0376 -0.2881  0.8926
   93ccc     H9 1984   0.111   4.312   1.213  2.9727 -0.2463  2.7811
   93ccc    H10 1985   0.052   4.439   1.119 -1.8658 -2.4038  2.2909
   93ccc    H11 1986   0.203   4.371   1.097 -2.4081 -2.7475 -0.5861
   94ccc     N1 1987   4.872   2.940   0.127  0.2577 -0.5343 -0.4494
   94ccc     H4 1988   4.772   2.943   0.116 -0.5634  0.6981  4.9267
   94ccc     C3 1989   4.909   2.816   0.201  0.2153  0.8015 -0.3602
   94ccc     C4 1990   4.780   2.727   0.229 -0.1332 -0.4689 -0.5460
   94ccc     H5 1991   4.950   2.837   0.300 -0.0697 -0.7363  0.1071
   94ccc     H6 1992   4.983   2.759   0.143 -0.6728 -1.4385  0.5976
   94ccc     H7 1993   4.793   2.653   0.308  1.1776 -0.9514 -1.1896
   94ccc     H8 1994   4.697   2.787   0.267  0.4227  0.3950 -0.6573
   94ccc     N2 1995   4.726   2.664   0.108  0.6152 -0.1454 -0.4444
   94ccc     H9 1996   4.691   2.728   0.036  2.3093  0.9847 -0.3170
   94ccc    H10 1997   4.799   2.602   0.070  1.3981  0.5573 -0.0983
   94ccc    H11 1998   4.650   2.603   0.144  0.2515  0.9928  0.8094
   95ccc     N1 1999   4.770   3.408  -0.601  0.4039  0.0768 -0.0286
   95ccc     H4 2000   4.729   3.498  -0.578  0.8931 -0.0630  1.4860
   95ccc     C3 2001   4.746   3.361  -0.734 -0.5200  0.2951 -0.0570
   95ccc     C4 2002   4.696   3.483  -0.819 -0.3175 -0.3036  0.0955
   95ccc     H5 2003   4.676   3.276  -0.727 -0.2099  0.1373  1.9217
   95ccc     H6 2004   4.845   3.322  -0.762  0.0356  1.8670 -0.3307
   95ccc     H7 2005   4.604   3.526  -0.780 -0.3952 -1.2564  1.0052
   95ccc     H8 2006   4.782   3.550  -0.828  0.1787 -1.1651 -3.6292
   95ccc     N2 2007   4.673   3.444  -0.967 -0.0305  0.0216  0.4153
   95ccc     H9 2008   4.602   3.370  -0.978 -0.1181  0.4661 -3.7001
   95ccc    H10 2009   4.625   3.518  -1.020 -0.7364 -1.6516 -1.4462
   95ccc    H11 2010   4.753   3.407  -1.022  0.1311  0.4737  0.3431
   96ccc     N1 2011   5.103   3.176   1.317  0.5095 -0.1284  0.0636
   96ccc     H4 2012   5.107   3.129   1.227  0.3409 -0.2671  0.1287
   96ccc     C3 2013   5.083   3.095   1.442 -0.0222  1.1899  0.5133
   96ccc     C4 2014   5.186   2.981   1.467 -0.5046  0.0632  0.1646
   96ccc     H5 2015   4.985   3.047   1.439  0.4790  0.0425  1.9702
   96ccc     H6 2016   5.077   3.152   1.535  0.7073  0.4751  1.0034
   96ccc     H7 2017   5.177   2.932   1.564  0.5675 -0.1882  0.1488
   96ccc     H8 2018   5.172   2.903   1.391 -3.1530  0.5270  0.0758
   96ccc     N2 2019   5.330   3.031   1.468  0.3147 -0.3211 -0.6009
   96ccc     H9 2020   5.403   2.961   1.445  0.0917 -0.5560 -0.6000
   96ccc    H10 2021   5.338   3.110   1.403 -0.5783  1.3153  1.2072
   96ccc    H11 2022   5.344   3.070   1.563 -0.7026  3.3343 -1.8037
   97ccc     N1 2023   5.544   3.848   1.364 -0.1565  0.1091  0.3306
   97ccc     H4 2024   5.490   3.913   1.420 -0.7180  1.0503 -1.2615
   97ccc     C3 2025   5.693   3.849   1.383  0.2341 -0.3886  0.9833
   97ccc     C4 2026   5.750   3.977   1.309  0.3511  0.1065  0.3184
   97ccc     H5 2027   5.744   3.761   1.341  1.0427  1.1242 -1.4744
   97ccc     H6 2028   5.714   3.851   1.490  2.6129 -1.8552  0.6189
   97ccc     H7 2029   5.741   3.981   1.201  1.6810 -0.0107  0.1786
   97ccc     H8 2030   5.702   4.065   1.352  0.3806 -0.1077  0.8068
   97ccc     N2 2031   5.900   4.008   1.318  0.3725  0.0821  0.3097
   97ccc     H9 2032   5.923   4.025   1.417  3.3508 -0.2508 -0.2603
   97ccc    H10 2033   5.957   3.928   1.289  0.0451 -0.7750  1.8896
   97ccc    H11 2034   5.933   4.094   1.271  2.2384 -0.4171  0.6339
   98ccc     N1 2035   5.504   5.007   1.850  0.2494  0.7284 -0.4363
   98ccc     H4 2036   5.430   5.039   1.911 -1.5192  0.6977 -2.4269
   98ccc     C3 2037   5.632   4.969   1.912  0.7936  0.9053 -0.0942
   98ccc     C4 2038   5.754   5.065   1.889 -0.8880  0.1709 -0.0141
   98ccc     H5 2039   5.653   4.865   1.887 -3.4683  0.1538 -1.3845
   98ccc     H6 2040   5.602   4.968   2.018  0.9308  0.0898 -0.0599
   98ccc     H7 2041   5.839   5.028   1.947 -2.1105 -1.2249  0.9593
   98ccc     H8 2042   5.767   5.073   1.781 -0.5518  3.7805  0.1811
   98ccc     N2 2043   5.730   5.210   1.935  0.3629  0.3505 -0.6674
   98ccc     H9 2044   5.632   5.231   1.914  0.2913  0.7623  0.0394
   98ccc    H10 2045   5.747   5.212   2.036 -2.7658 -2.5339  0.0881
   98ccc    H11 2046   5.783   5.280   1.881 -1.1246  0.2923 -2.2668
   99ccc     N1 2047   5.112   4.487   1.711  0.2811  0.2162  0.4744
   99ccc     H4 2048   5.029   4.483   1.768  1.8050 -1.7585  2.7790
   99ccc     C3 2049   5.203   4.376   1.723 -0.1940 -0.4816  0.3154
   99ccc     C4 2050   5.144   4.248   1.771  0.0464  0.1476  0.1733
   99ccc     H5 2051   5.291   4.413   1.777  0.1414 -1.0241  0.1558
   99ccc     H6 2052   5.239   4.349   1.623  1.1313  0.4130  0.5215
   99ccc     H7 2053   5.069   4.264   1.848 -1.2692  1.0290 -1.2349
   99ccc     H8 2054   5.106   4.195   1.684  0.6950 -1.6651  0.9513
   99ccc     N2 2055   5.250   4.155   1.829 -0.1105  0.6415 -0.7361
   99ccc     H9 2056   5.318   4.128   1.756 -0.3170 -2.7989  0.1792
   99ccc    H10 2057   5.311   4.201   1.898  1.0375 -2.1076  0.2472
   99ccc    H11 2058   5.206   4.070   1.868  2.5023  0.3771  1.9759
  100ccc     N1 2059   5.428   4.711  -0.003  0.5674 -0.1540 -0.6457
  100ccc     H4 2060   5.435   4.664   0.087  1.0016 -0.1064 -0.6535
  100ccc     C3 2061   5.344   4.648  -0.101  0.4184 -0.0764  0.0300
  100ccc     C4 2062   5.432   4.563  -0.196  0.3520 -0.2255 -0.5821
  100ccc     H5 2063   5.285   4.724  -0.155 -0.7536 -1.1533 -0.2344
  100ccc     H6 2064   5.284   4.570  -0.052 -1.4256  1.7372  0.8268
  100ccc     H7 2065   5.506   4.632  -0.240 -0.7207  1.4546  0.1381
  100ccc     H8 2066   5.483   4.481  -0.146  1.3996  0.0490 -1.1536
  100ccc     N2 2067   5.348   4.494  -0.304 -0.2495  0.1362 -0.3536
  100ccc     H9 2068   5.403   4.456  -0.382 -1.0875  1.7335 -1.7781
  100ccc    H10 2069   5.293   4.418  -0.260 -0.5217 -0.6195 -1.9391
  100ccc    H11 2070   5.284   4.558  -0.352 -1.8945 -1.0995  0.0989
  101ccc     N1 2071   5.850   5.424   0.452  0.1227  0.2081  0.6476
  101ccc     H4 2072   5.771   5.464   0.503 -1.4482 -2.3921  0.4368
  101ccc     C3 2073   5.979   5.499   0.437  0.5126 -0.1456 -0.2249
  101ccc     C4 2074   6.080   5.454   0.536 -0.1975 -0.3217  0.1920
  101ccc     H5 2075   5.948   5.604   0.447 -0.9761 -0.4270 -1.5087
  101ccc     H6 2076   6.025   5.481   0.340  2.5408  0.1212  0.6304
  101ccc     H7 2077   6.068   5.347   0.551  1.0362 -0.8232 -1.9856
  101ccc     H8 2078   6.181   5.459   0.497  0.4926  1.0910  2.0074
  101ccc     N2 2079   6.077   5.531   0.667 -0.3477 -0.4119 -0.2381
  101ccc     H9 2080   6.114   5.477   0.746  2.7396  0.9197 -0.6276
  101ccc    H10 2081   6.128   5.621   0.670  0.8255 -1.0537 -0.5568
  101ccc    H11 2082   5.989   5.576   0.698  1.8105  2.8083  1.8417
  102ccc     N1 2083   3.758   4.499  -0.622 -0.3064 -0.0780 -0.0162
  102ccc     H4 2084   3.743   4.553  -0.707  0.1082  0.1636  0.0602
  102ccc     C3 2085   3.652   4.412  -0.558  0.2955  0.4360 -0.2845
  102ccc     C4 2086   3.647   4.271  -0.620 -0.6344 -0.5405  0.2513
  102ccc     H5 2087   3.562   4.469  -0.582 -0.6098 -1.4430 -1.6187
  102ccc     H6 2088   3.673   4.409  -0.450  0.1196 -1.5915 -0.2764
  102ccc     H7 2089   3.597   4.284  -0.716  2.0037  0.8237 -1.0347
  102ccc     H8 2090   3.748   4.232  -0.635 -0.1635  0.7840 -0.1721
  102ccc     N2 2091   3.563   4.171  -0.546  0.3681 -0.4858  0.1504
  102ccc     H9 2092   3.558   4.096  -0.616 -0.7598 -1.0461  0.8181
  102ccc    H10 2093   3.612   4.139  -0.461  0.1137  2.4075  1.5077
  102ccc    H11 2094   3.469   4.205  -0.522 -0.6776 -1.1283 -2.6639
  103ccc     N1 2095   4.451   4.436  -0.937 -0.0637  0.3602  0.2116
  103ccc     H4 2096   4.511   4.383  -0.875  1.7632  0.9449 -0.9714
  103ccc     C3 2097   4.462   4.405  -1.081 -0.5866 -0.1557  0.7170
  103ccc     C4 2098   4.558   4.507  -1.155 -0.3350  0.7598  0.3736
  103ccc     H5 2099   4.369   4.414  -1.139  0.8559 -0.4061 -1.8062
  103ccc     H6 2100   4.499   4.303  -1.095 -0.7574 -0.2549  0.9856
  103ccc     H7 2101   4.543   4.606  -1.110  1.7975  1.5073 -0.4110
  103ccc     H8 2102   4.661   4.479  -1.134 -0.4899  0.0724  0.2270
  103ccc     N2 2103   4.541   4.522  -1.307  0.4228 -0.2702 -0.0061
  103ccc     H9 2104   4.594   4.604  -1.338 -0.6976  1.3099  2.0319
  103ccc    H10 2105   4.565   4.446  -1.372 -1.4401 -1.4988  0.6405
  103ccc    H11 2106   4.443   4.545  -1.330  1.2287  1.5707 -1.8751
  104ccc     N1 2107   4.137   5.978  -0.973 -0.2729  0.2990  0.1731
  104ccc     H4 2108   4.149   6.056  -1.037  0.7937 -0.9446 -1.1970
  104ccc     C3 2109   4.029   5.878  -1.006 -0.3166  0.1758  0.3940
  104ccc     C4 2110   3.897   5.925  -0.951 -0.3754 -0.7772 -0.0324
  104ccc     H5 2111   4.049   5.774  -0.977 -1.5547 -0.5738 -1.2690
  104ccc     H6 2112   4.016   5.886  -1.114 -0.8636  0.3825  0.4728
  104ccc     H7 2113   3.823   5.855  -0.990  0.8600 -0.5098 -3.2098
  104ccc     H8 2114   3.899   5.919  -0.842 -0.0873  0.8206  0.0648
  104ccc     N2 2115   3.839   6.070  -0.976 -0.6682  0.4387 -0.5613
  104ccc     H9 2116   3.896   6.143  -0.931  3.9477 -1.9870 -1.8683
  104ccc    H10 2117   3.835   6.099  -1.074  1.7256  2.5747 -0.1262
  104ccc    H11 2118   3.745   6.081  -0.934 -0.1063  2.9175  0.2294
  105ccc     N1 2119   4.287   6.296  -0.271 -0.0647 -0.0200  0.2026
  105ccc     H4 2120   4.264   6.346  -0.356 -0.6636 -3.0978 -1.5832
  105ccc     C3 2121   4.289   6.365  -0.141  0.3296 -0.1661 -0.2536
  105ccc     C4 2122   4.257   6.512  -0.155  0.2264 -0.2072 -0.1925
  105ccc     H5 2123   4.390   6.351  -0.102  0.5307 -1.0183 -1.0582
  105ccc     H6 2124   4.220   6.318  -0.070  0.2791 -0.8198 -0.7305
  105ccc     H7 2125   4.339   6.555  -0.212  1.0637 -0.0900  1.0523
  105ccc     H8 2126   4.162   6.529  -0.205  0.1041 -0.7605 -0.1621
  105ccc     N2 2127   4.259   6.583  -0.020 -0.7933 -0.2662 -0.0338
  105ccc     H9 2128   4.357   6.584   0.013 -1.1846 -0.8866  1.2173
  105ccc    H10 2129   4.224   6.679  -0.026 -0.7420 -0.1224  1.4987
  105ccc    H11 2130   4.203   6.530   0.049 -2.1417  0.8249 -0.2428
  106ccc     N1 2131   4.175   6.417   0.956  0.2831  0.1547  0.4737
  106ccc     H4 2132   4.121   6.489   0.910  0.8803 -0.7808 -1.8222
  106ccc     C3 2133   4.276   6.348   0.873  0.2606  0.0422 -0.1458
  106ccc     C4 2134   4.286   6.402   0.728 -0.3614 -0.5076 -0.5831
  106ccc     H5 2135   4.249   6.241   0.870  2.3087 -0.5525  0.6587
  106ccc     H6 2136   4.369   6.365   0.928 -0.7699  0.5783  1.4809
  106ccc     H7 2137   4.361   6.351   0.669  1.1847  1.1255 -0.1109
  106ccc     H8 2138   4.184   6.380   0.694 -1.0857 -0.7968  1.6200
  106ccc     N2 2139   4.304   6.554   0.715 -0.2208  0.0417 -0.5193
  106ccc     H9 2140   4.234   6.606   0.770  2.5650  1.9363  1.5299
  106ccc    H10 2141   4.397   6.582   0.751  0.4144 -2.2864 -0.2306
  106ccc    H11 2142   4.294   6.580   0.615  0.0653 -0.4514 -0.6774
  107ccc     N1 2143   3.802   5.970   1.543 -0.2678  0.1310 -0.4887
  107ccc     H4 2144   3.848   5.929   1.463 -1.2143  0.4152 -1.1974
  107ccc     C3 2145   3.728   5.874   1.635 -0.1782  0.1769  0.2766
  107ccc     C4 2146   3.823   5.762   1.679 -0.7006  0.4622  0.2023
  107ccc     H5 2147   3.650   5.832   1.570  1.0377  1.3981 -2.0885
  107ccc     H6 2148   3.686   5.929   1.721 -3.0001  1.6525 -1.8821
  107ccc     H7 2149   3.859   5.696   1.600 -1.1222 -0.3384  0.6645
  107ccc     H8 2150   3.915   5.809   1.714 -1.1708  1.2524  0.3851
  107ccc     N2 2151   3.773   5.667   1.777  0.0677  0.5401 -0.5113
  107ccc     H9 2152   3.768   5.715   1.868  2.8209  0.4689 -0.2575
  107ccc    H10 2153   3.679   5.636   1.746 -0.6166  1.2564  0.7446
  107ccc    H11 2154   3.830   5.582   1.789  0.9332  0.6147 -3.3083
  108ccc     N1 2155   5.387   6.039   1.342  0.2226 -0.4306  0.0253
  108ccc     H4 2156   5.338   6.024   1.254  0.9588  0.0409 -0.4835
  108ccc     C3 2157   5.525   6.088   1.332  0.3484 -0.1064 -0.3773
  108ccc     C4 2158   5.523   6.243   1.301 -0.0211  0.1753  0.8591
  108ccc     H5 2159   5.573   6.040   1.246  0.0371 -0.8655 -0.1367
  108ccc     H6 2160   5.585   6.061   1.420  1.0718 -2.6187 -1.5638
  108ccc     H7 2161   5.434   6.266   1.243 -1.4751 -2.0561  2.0625
  108ccc     H8 2162   5.508   6.291   1.397 -1.5403 -0.8142  1.1425
  108ccc     N2 2163   5.650   6.301   1.228  0.0369 -0.0504  0.0736
  108ccc     H9 2164   5.739   6.274   1.272 -0.2176 -1.6973 -0.3720
  108ccc    H10 2165   5.653   6.263   1.132  0.1997 -0.6010  0.2949
  108ccc    H11 2166   5.647   6.404   1.219 -1.5737 -0.1518 -1.0641
  109ccc     N1 2167   5.037   5.604   2.005 -0.2194 -0.8892 -0.0373
  109ccc     H4 2168   5.121   5.565   1.963 -0.6898 -0.6767 -1.2058
  109ccc     C3 2169   4.992   5.559   2.138 -0.7211 -0.0901  0.8694
  109ccc     C4 2170   4.943   5.412   2.138 -0.5938 -0.5531 -0.0302
  109ccc     H5 2171   4.910   5.627   2.167  0.5498  2.2262 -0.6481
  109ccc     H6 2172   5.074   5.574   2.209  0.3807  3.5835 -0.9167
  109ccc     H7 2173   4.857   5.405   2.072  0.6177  0.8728 -1.8434
  109ccc     H8 2174   5.020   5.352   2.090 -0.8557  0.1314 -1.3415
  109ccc     N2 2175   4.919   5.352   2.278 -0.1901 -0.5726 -0.0237
  109ccc     H9 2176   4.878   5.259   2.264  0.0691 -0.8287  0.8484
  109ccc    H10 2177   5.010   5.342   2.326  0.0094 -0.7054 -0.4295
  109ccc    H11 2178   4.860   5.417   2.331  0.8954  4.0182 -3.7775
  110ccc     N1 2179   3.247   3.321   4.082  0.1455  0.4660  0.1077
  110ccc     H4 2180   3.269   3.241   4.141  1.7938  1.7029  1.2678
  110ccc     C3 2181   3.212   3.449   4.146  0.9814  0.6742 -0.7546
  110ccc     C4 2182   3.313   3.490   4.255  0.6778  0.0680  0.0552
  110ccc     H5 2183   3.112   3.437   4.190  0.6863  0.6903 -1.4073
  110ccc     H6 2184   3.200   3.526   4.069  0.1725 -1.2746 -2.7089
  110ccc     H7 2185   3.304   3.432   4.347 -0.7414  0.5771  0.2655
  110ccc     H8 2186   3.403   3.464   4.199 -0.2277 -1.6918 -0.6485
  110ccc     N2 2187   3.324   3.637   4.294  0.4906 -0.3503 -0.4166
  110ccc     H9 2188   3.242   3.673   4.346  0.8615 -0.5673  0.3319
  110ccc    H10 2189   3.404   3.652   4.357  0.7393  0.3731 -0.8918
  110ccc    H11 2190   3.343   3.689   4.207  0.2915  2.5150  1.1363
  111ccc     N1 2191   3.755   3.026   4.061  0.7286  0.8405 -0.2763
  111ccc     H4 2192   3.667   3.027   4.111  0.5512  1.6794 -0.5994
  111ccc     C3 2193   3.867   3.076   4.149 -0.2039 -0.1051 -0.5874
  111ccc     C4 2194   3.834   3.042   4.293 -0.4074  0.8903  0.5740
  111ccc     H5 2195   3.867   3.185   4.133 -0.7252  0.1469  0.9785
  111ccc     H6 2196   3.967   3.041   4.120  0.4534  0.8689  0.4512
  111ccc     H7 2197   3.903   3.093   4.361  1.8469 -0.1602 -0.8110
  111ccc     H8 2198   3.727   3.058   4.311 -0.6896  0.6888 -0.7778
  111ccc     N2 2199   3.846   2.899   4.330 -0.5019  0.1450 -0.5914
  111ccc     H9 2200   3.798   2.882   4.420 -0.3626  0.7491 -0.4024
  111ccc    H10 2201   3.790   2.840   4.267 -1.7366 -0.9058  1.3839
  111ccc    H11 2202   3.944   2.868   4.337 -0.5313  0.3182  1.0714
  112ccc     N1 2203   4.494   2.417   2.997 -1.1700 -0.0116 -0.2545
  112ccc     H4 2204   4.434   2.454   3.070 -0.8093  0.7685 -0.3399
  112ccc     C3 2205   4.633   2.463   3.000  0.3933  0.4637 -0.0843
  112ccc     C4 2206   4.677   2.549   3.122  0.6626  0.0900  0.0259
  112ccc     H5 2207   4.655   2.516   2.907  0.1224  0.0655 -0.3791
  112ccc     H6 2208   4.692   2.370   2.994 -1.6070 -0.7967 -2.8878
  112ccc     H7 2209   4.778   2.589   3.109  0.7778 -0.4063 -0.6236
  112ccc     H8 2210   4.614   2.638   3.129 -0.3938 -0.5634 -0.8261
  112ccc     N2 2211   4.669   2.475   3.255 -0.4283 -0.6500  0.2199
  112ccc     H9 2212   4.747   2.408   3.265 -0.5901 -1.0476 -1.0350
  112ccc    H10 2213   4.663   2.548   3.328 -2.2417 -0.2515 -0.2922
  112ccc    H11 2214   4.589   2.411   3.261  0.2513 -1.5337  0.1534
  113ccc     N1 2215   4.025   2.014   3.142 -0.2838  0.1344 -0.2043
  113ccc     H4 2216   4.016   1.917   3.113 -3.8405  0.3905 -0.4344
  113ccc     C3 2217   3.963   2.066   3.265 -0.5583 -0.3796 -0.1483
  113ccc     C4 2218   3.832   1.990   3.295 -0.7343 -0.3186  0.6026
  113ccc     H5 2219   3.956   2.176   3.262 -2.6321 -0.4456  0.8380
  113ccc     H6 2220   4.031   2.037   3.347  1.2839 -0.5493 -1.6796
  113ccc     H7 2221   3.764   1.999   3.210  0.7266 -0.1990 -0.6032
  113ccc     H8 2222   3.851   1.883   3.294 -2.7100 -0.6995 -0.8658
  113ccc     N2 2223   3.757   2.028   3.421  0.2901 -0.2000  0.9848
  113ccc     H9 2224   3.700   2.113   3.411  2.7455  1.5627  0.9335
  113ccc    H10 2225   3.692   1.953   3.447 -0.4424 -0.6453 -1.7839
  113ccc    H11 2226   3.813   2.034   3.507 -0.0405  2.2152  1.1056
  114ccc     N1 2227   2.383   2.546   2.855  0.8277 -0.2378  0.5652
  114ccc     H4 2228   2.384   2.599   2.941  0.3995  2.3405 -0.9228
  114ccc     C3 2229   2.461   2.421   2.848  0.4563 -0.3452  0.3378
  114ccc     C4 2230   2.518   2.366   2.985 -0.7840 -0.5698 -0.4067
  114ccc     H5 2231   2.544   2.423   2.775 -0.7010  0.4202 -1.0112
  114ccc     H6 2232   2.394   2.340   2.817  1.5931 -1.4571  0.7015
  114ccc     H7 2233   2.579   2.435   3.043 -0.6458  0.1076 -1.3412
  114ccc     H8 2234   2.432   2.332   3.044 -2.0359  0.2230 -1.7129
  114ccc     N2 2235   2.607   2.249   2.978 -0.0274  0.6905  0.3843
  114ccc     H9 2236   2.638   2.227   3.073  0.1780  2.2411  0.7056
  114ccc    H10 2237   2.577   2.161   2.934  0.9952  0.4655  0.1352
  114ccc    H11 2238   2.699   2.275   2.940  2.0018 -2.9378  2.3715
  115ccc     N1 2239   1.954   2.947   2.184 -0.6958  0.5526 -0.4776
  115ccc     H4 2240   2.004   2.860   2.166  2.4544  1.0523  4.0683
  115ccc     C3 2241   1.887   3.003   2.064 -0.0724  0.4450  0.1663
  115ccc     C4 2242   1.988   3.053   1.961 -0.4803  0.1444 -0.2730
  115ccc     H5 2243   1.812   3.077   2.095  2.1932  2.1717  1.8607
  115ccc     H6 2244   1.835   2.923   2.011 -0.2386  1.4285 -1.2119
  115ccc     H7 2245   2.053   2.970   1.933 -0.3803 -0.0221  0.4347
  115ccc     H8 2246   1.924   3.073   1.875  0.5156 -0.0262 -1.0765
  115ccc     N2 2247   2.064   3.175   2.002 -0.6154 -0.0445 -0.2944
  115ccc     H9 2248   2.119   3.145   2.083 -1.8594 -0.6897  0.3359
  115ccc    H10 2249   2.112   3.226   1.927 -0.8873 -1.1960 -1.2768
  115ccc    H11 2250   2.002   3.250   2.037 -0.5563 -0.4587  0.7318
  116ccc     N1 2251   2.808   2.690   4.291  0.0811  0.1079  0.1274
  116ccc     H4 2252   2.733   2.658   4.350 -1.2345  1.1282 -0.8975
  116ccc     C3 2253   2.948   2.690   4.328 -0.0342  0.7307  0.4445
  116ccc     C4 2254   3.006   2.550   4.351  0.6106 -0.4559 -0.0812
  116ccc     H5 2255   2.956   2.754   4.417 -0.5589 -0.5607  1.4694
  116ccc     H6 2256   3.010   2.737   4.251 -0.7837 -0.3025 -0.8438
  116ccc     H7 2257   3.114   2.555   4.340  0.4760  0.2547 -1.2526
  116ccc     H8 2258   2.968   2.520   4.449  0.1171  3.6788  1.2120
  116ccc     N2 2259   2.964   2.438   4.252 -0.1199  1.2188  0.0544
  116ccc     H9 2260   2.871   2.399   4.272  0.3724 -1.4584 -2.1801
  116ccc    H10 2261   2.952   2.481   4.159  0.3398  0.4517 -0.3786
  116ccc    H11 2262   3.027   2.356   4.256 -0.8771  0.6171  0.0469
  117ccc     N1 2263   2.079   2.429   3.917 -0.2109 -0.5583 -0.4670
  117ccc     H4 2264   2.054   2.427   4.015 -2.2661 -0.8291 -0.9371
  117ccc     C3 2265   2.042   2.325   3.824 -0.0130 -0.2923  0.3618
  117ccc     C4 2266   1.964   2.211   3.890  0.4734 -0.4255  0.4581
  117ccc     H5 2267   2.129   2.283   3.772  0.1586 -0.8547  1.0948
  117ccc     H6 2268   1.973   2.373   3.753 -1.6837 -2.2857  0.5407
  117ccc     H7 2269   2.020   2.195   3.982  2.1310  1.2329 -0.2179
  117ccc     H8 2270   1.868   2.255   3.917 -0.4851 -1.5102 -0.9757
  117ccc     N2 2271   1.945   2.073   3.823 -0.4131 -0.3052 -0.8369
  117ccc     H9 2272   1.890   2.076   3.736  0.1513 -0.5565 -1.2099
  117ccc    H10 2273   2.034   2.034   3.788 -0.8221 -0.5234 -1.6688
  117ccc    H11 2274   1.899   2.011   3.892 -0.2175  1.6698  1.2023
  118ccc     N1 2275   5.029   2.342   2.293 -0.5755  0.6426  0.5346
  118ccc     H4 2276   4.970   2.403   2.349 -1.0961  1.4455 -0.8152
  118ccc     C3 2277   5.076   2.211   2.352 -0.6370 -0.4967 -0.6754
  118ccc     C4 2278   5.187   2.235   2.462 -0.2643  0.4432 -0.4894
  118ccc     H5 2279   5.120   2.151   2.271  0.6136  0.2366 -0.5817
  118ccc     H6 2280   4.992   2.150   2.385 -0.4638 -1.6486 -2.2176
  118ccc     H7 2281   5.245   2.145   2.483  0.9730  1.0965 -1.0195
  118ccc     H8 2282   5.254   2.309   2.419 -0.0584  1.2856  1.2123
  118ccc     N2 2283   5.128   2.299   2.586 -1.0097 -0.5155  0.1026
  118ccc     H9 2284   5.084   2.390   2.565 -0.0710  0.0310  0.4703
  118ccc    H10 2285   5.058   2.235   2.627 -1.1203  0.2001  1.0633
  118ccc    H11 2286   5.200   2.325   2.654 -1.3583  0.0304  0.2684
  119ccc     N1 2287   4.865   2.567   1.591 -0.5235  0.3250 -0.2911
  119ccc     H4 2288   4.899   2.486   1.641  0.4315  1.6716  1.3250
  119ccc     C3 2289   4.806   2.559   1.454  0.3666 -0.1602  0.6272
  119ccc     C4 2290   4.650   2.579   1.459 -0.2852  0.1793 -0.2084
  119ccc     H5 2291   4.816   2.460   1.407  2.3855  0.4443 -0.3417
  119ccc     H6 2292   4.847   2.639   1.391 -0.6922  0.3089  0.5169
  119ccc     H7 2293   4.638   2.672   1.514 -1.2215  0.9280 -1.5965
  119ccc     H8 2294   4.610   2.601   1.360 -1.0706  0.9429  0.2670
  119ccc     N2 2295   4.564   2.476   1.525 -0.0809  0.2822  0.1274
  119ccc     H9 2296   4.467   2.509   1.515 -0.2090  0.2498  1.1175
  119ccc    H10 2297   4.574   2.391   1.467  2.4602  0.3498  0.3485
  119ccc    H11 2298   4.584   2.448   1.622 -0.5965 -1.3675 -0.2056
  120ccc     N1 2299   4.153   3.290   0.742 -0.0039 -0.4595 -0.7035
  120ccc     H4 2300   4.243   3.244   0.744  0.6920  0.8863 -0.0062
  120ccc     C3 2301   4.067   3.282   0.622  0.0883 -0.2575  0.1430
  120ccc     C4 2302   3.999   3.144   0.603 -0.1587 -0.0319  0.2969
  120ccc     H5 2303   4.117   3.307   0.528  1.5800  0.6062  1.1317
  120ccc     H6 2304   3.993   3.361   0.638  2.1541  1.5055  1.4880
  120ccc     H7 2305   3.945   3.127   0.696  0.4545  0.3333  0.7273
  120ccc     H8 2306   3.920   3.149   0.527  0.4552 -0.9552 -0.4170
  120ccc     N2 2307   4.092   3.036   0.566 -0.4328  0.4345  0.5120
  120ccc     H9 2308   4.143   3.063   0.481 -0.0231  0.7719  0.8601
  120ccc    H10 2309   4.157   3.014   0.642 -0.2427 -2.9852 -0.4615
  120ccc    H11 2310   4.040   2.951   0.538 -0.4540  0.8900 -0.9220
  121ccc     N1 2311   4.294   3.880   1.447 -0.1680 -0.3794 -0.6153
  121ccc     H4 2312   4.331   3.800   1.497 -1.3941 -0.0700  0.8607
  121ccc     C3 2313   4.325   4.003   1.513  0.5039  0.0139  0.1012
  121ccc     C4 2314   4.378   3.985   1.661 -0.2321  0.3585  0.3414
  121ccc     H5 2315   4.239   4.072   1.509  0.6279  0.1575 -0.1239
  121ccc     H6 2316   4.394   4.054   1.444 -0.6504 -0.2440 -1.3061
  121ccc     H7 2317   4.433   3.891   1.674 -2.9889 -1.3466  0.6055
  121ccc     H8 2318   4.448   4.066   1.682 -0.3957  0.6528 -0.2399
  121ccc     N2 2319   4.264   3.988   1.758 -0.3077 -0.4360  0.6952
  121ccc     H9 2320   4.184   3.934   1.722 -2.4186  2.2903  1.0134
  121ccc    H10 2321   4.298   3.942   1.843  1.7063 -0.1238  0.1372
  121ccc    H11 2322   4.242   4.087   1.774  2.1796  0.4422 -0.6828
  122ccc     N1 2323   4.214   1.838   2.179 -0.1952  0.0459  0.2282
  122ccc     H4 2324   4.173   1.924   2.212  1.1929  1.3362 -1.1805
  122ccc     C3 2325   4.317   1.762   2.258  0.6366  0.3104  1.1000
  122ccc     C4 2326   4.331   1.810   2.408  0.1233 -0.0515  0.0273
  122ccc     H5 2327   4.415   1.778   2.211  0.1342 -1.5972 -0.7503
  122ccc     H6 2328   4.284   1.658   2.248 -1.0192  0.9241 -0.2053
  122ccc     H7 2329   4.412   1.753   2.454  1.7527  1.1305 -1.2643
  122ccc     H8 2330   4.356   1.916   2.417  0.7409 -0.0609 -1.3315
  122ccc     N2 2331   4.208   1.779   2.485 -0.6571  0.3658  0.0884
  122ccc     H9 2332   4.126   1.832   2.452 -0.1936  0.3684 -1.1212
  122ccc    H10 2333   4.187   1.681   2.465 -0.0030  0.0437  0.9266
  122ccc    H11 2334   4.224   1.796   2.586  1.3934  0.0840 -0.1400
  123ccc     N1 2335   3.540   1.516   1.766  0.3852  0.8117  0.3567
  123ccc     H4 2336   3.546   1.487   1.863 -1.9368  1.1608  0.6591
  123ccc     C3 2337   3.430   1.458   1.680 -0.6422  0.2082 -0.4742
  123ccc     C4 2338   3.373   1.326   1.727 -0.0994  0.4858  0.2234
  123ccc     H5 2339   3.474   1.433   1.583  0.4605  3.3821 -0.9120
  123ccc     H6 2340   3.353   1.536   1.669 -0.2886  0.9453  1.6967
  123ccc     H7 2341   3.303   1.296   1.649  0.9534 -2.6636  0.3664
  123ccc     H8 2342   3.447   1.246   1.727 -2.1152 -1.4773  0.6874
  123ccc     N2 2343   3.297   1.343   1.865  0.2975 -0.7526  0.1936
  123ccc     H9 2344   3.237   1.260   1.876 -1.3322  0.6169  2.5086
  123ccc    H10 2345   3.363   1.350   1.944 -0.8726  0.0168  1.1531
  123ccc    H11 2346   3.233   1.423   1.858 -0.2291 -1.0008  1.7114
  124ccc     N1 2347   2.989   2.213   1.018 -0.0021 -0.2426 -0.2558
  124ccc     H4 2348   3.071   2.208   1.077 -0.2692 -2.9512 -0.0029
  124ccc     C3 2349   2.900   2.094   1.014  0.1521 -0.8378  0.4293
  124ccc     C4 2350   2.897   2.024   1.149  0.3546  0.1569 -0.1589
  124ccc     H5 2351   2.938   2.031   0.933  1.0389 -0.2678  0.3953
  124ccc     H6 2352   2.799   2.128   0.986  0.2163 -0.9600  0.0388
  124ccc     H7 2353   2.854   2.093   1.222 -1.0340 -0.1520 -0.6451
  124ccc     H8 2354   2.832   1.940   1.124  0.3454 -0.4165  1.6533
  124ccc     N2 2355   3.031   1.967   1.184 -0.3218  0.3998  0.2484
  124ccc     H9 2356   3.094   2.049   1.189  1.4295 -0.8187 -0.8109
  124ccc    H10 2357   3.036   1.930   1.280  0.4548  0.6717  0.3208
  124ccc    H11 2358   3.066   1.898   1.116  0.1610  1.0478 -0.1772
  125ccc     N1 2359   3.415   2.659   0.548  0.3940 -0.1022 -0.2303
  125ccc     H4 2360   3.333   2.609   0.517  1.2024 -0.4998 -1.8622
  125ccc     C3 2361   3.535   2.642   0.462 -0.1177  0.6554 -0.1466
  125ccc     C4 2362   3.555   2.753   0.354 -0.0686  0.8161 -0.4291
  125ccc     H5 2363   3.521   2.553   0.401 -1.0993 -0.2656  1.3425
  125ccc     H6 2364   3.636   2.625   0.500 -0.0707 -1.5201 -1.1310
  125ccc     H7 2365   3.455   2.776   0.318 -0.1925  2.7106  0.9650
  125ccc     H8 2366   3.594   2.846   0.395  1.2116 -0.2881  0.9886
  125ccc     N2 2367   3.628   2.705   0.227 -0.6673 -0.4734 -0.5499
  125ccc     H9 2368   3.571   2.624   0.198 -0.0472 -0.6090 -1.4198
  125ccc    H10 2369   3.630   2.772   0.148  1.0735  0.9934  0.6587
  125ccc    H11 2370   3.723   2.667   0.237 -0.5656  0.1173  0.8893
  126SOL     OW 2371   7.858   5.404   5.784  0.1558 -0.0745  0.2005
  126SOL    HW1 2372   7.820   5.330   5.833  2.2987 -0.5969  1.1662
  126SOL    HW2 2373   7.878   5.469   5.851  0.4175  0.4350 -0.3678
  127SOL     OW 2374   4.950   4.222   6.716  0.1239  0.1522  0.3154
  127SOL    HW1 2375   4.883   4.262   6.661  0.6361  0.7226  0.0899
  127SOL    HW2 2376   4.934   4.257   6.803 -0.0014  0.1153  0.3079
  128SOL     OW 2377   4.267   8.316   6.187 -0.2732 -0.1009  0.4105
  128SOL    HW1 2378   4.176   8.300   6.210 -0.1833 -0.7389  0.3435
  128SOL    HW2 2379   4.286   8.403   6.223 -0.6360 -0.3488  1.2306
  129SOL     OW 2380   7.173   7.060   4.257 -0.4535  1.0587  0.4108
  129SOL    HW1 2381   7.083   7.074   4.288 -1.1057 -2.0427  0.2639
  129SOL    HW2 2382   7.227   7.100   4.325 -1.9076  2.5209  0.7869
  130SOL     OW 2383   8.497   5.786   7.102  1.1154  0.2491  0.4261
  130SOL    HW1 2384   8.553   5.708   7.098 -0.9961 -1.4361  1.5850
  130SOL    HW2 2385   8.448   5.777   7.183  1.1800  3.1512  0.8983
  131SOL     OW 2386   4.506   7.414   7.518  0.3897  0.7106 -0.3800
  131SOL    HW1 2387   4.513   7.384   7.427 -0.1682  1.5156 -0.6981
  131SOL    HW2 2388   4.592   7.395   7.556  0.4300 -0.2107 -0.8877
  132SOL     OW 2389   7.355   5.140   6.447  0.1208  0.6025  0.0942
  132SOL    HW1 2390   7.444   5.127   6.415 -0.1446 -0.7016 -0.1733
  132SOL    HW2 2391   7.366   5.191   6.527  1.2525 -0.7681  0.8585
  133SOL     OW 2392   3.501   6.368   2.611  0.0002  0.3577 -0.5001
  133SOL    HW1 2393   3.576   6.421   2.638 -0.9463  0.8837  1.2126
  133SOL    HW2 2394   3.468   6.412   2.532 -0.2149  1.8030  0.3622
  134SOL     OW 2395   5.126   2.820   6.630  0.0983  0.4406 -0.0359
  134SOL    HW1 2396   5.194   2.885   6.649 -1.0068  1.5975  0.0996
  134SOL    HW2 2397   5.104   2.784   6.716 -1.8261  2.5359  0.4251
  135SOL     OW 2398   5.275   2.526   3.785  0.7409 -0.9006 -0.0055
  135SOL    HW1 2399   5.278   2.520   3.689 -0.2234  0.2201 -0.1358
  135SOL    HW2 2400   5.223   2.605   3.802 -0.5547 -2.0151  1.4597
  136SOL     OW 2401   7.220   2.716   7.940  0.0996  0.0483  0.1552
  136SOL    HW1 2402   7.306   2.676   7.923 -0.0587 -0.4858  0.5611
  136SOL    HW2 2403   7.239   2.806   7.964  0.7415 -0.5955  2.3022
  137SOL     OW 2404   6.182   0.468   7.092 -0.4566  0.0445 -0.3005
  137SOL    HW1 2405   6.172   0.526   7.168  2.1618 -1.2231  1.1361
  137SOL    HW2 2406   6.128   0.392   7.113 -0.8951  0.3148 -0.4237
  138SOL     OW 2407   4.144   3.220   8.354 -0.1387 -0.0464  0.2577
  138SOL    HW1 2408   4.127   3.126   8.354  2.2311 -0.5523  1.2762
  138SOL    HW2 2409   4.099   3.252   8.433 -1.3110 -0.2138 -0.3226
  139SOL     OW 2410   1.955   0.479   4.146 -0.2548  0.3514  0.0231
  139SOL    HW1 2411   1.954   0.453   4.238  0.2704  0.3476  0.0323
  139SOL    HW2 2412   1.949   0.397   4.098 -2.7534  0.4762  0.0362
  140SOL     OW 2413   6.094   3.866   5.702 -0.3572  0.3354 -0.0706
  140SOL    HW1 2414   6.098   3.909   5.788 -0.4254  0.2753 -0.0367
  140SOL    HW2 2415   6.068   3.935   5.641 -0.7119  0.2882  0.0233
  141SOL     OW 2416   4.680   7.634   4.814  0.2994 -1.0243 -0.5496
  141SOL    HW1 2417   4.759   7.689   4.814 -0.6943  0.4797 -0.8255
  141SOL    HW2 2418   4.629   7.665   4.889 -2.4365  1.8437 -3.2791
  142SOL     OW 2419   6.398   5.448   4.650  0.3349  0.6673 -0.1942
  142SOL    HW1 2420   6.342   5.523   4.673  0.4319  0.3801  1.0655
  142SOL    HW2 2421   6.337   5.384   4.613 -0.2313  0.3261  1.2364
  143SOL     OW 2422   2.608   2.105   0.110  0.0762  0.8634 -0.1265
  143SOL    HW1 2423   2.590   2.197   0.132  0.5020  0.9334 -0.0757
  143SOL    HW2 2424   2.596   2.059   0.193 -0.1635  0.8657 -0.1572
  144SOL     OW 2425   1.897   0.898   7.874 -0.3313 -0.5515  0.2471
  144SOL    HW1 2426   1.971   0.851   7.914 -0.6919  0.1451  1.7963
  144SOL    HW2 2427   1.840   0.829   7.843  0.6869 -1.1096 -0.4525
  145SOL     OW 2428   0.930   3.913   7.546 -0.1583  0.3887 -0.1004
  145SOL    HW1 2429   0.945   3.900   7.452 -2.2800  0.1444 -0.4600
  145SOL    HW2 2430   0.879   3.837   7.572  2.1806 -0.6310  1.7807
  146SOL     OW 2431   8.180   3.574   2.932 -0.4652 -0.2601  0.1649
  146SOL    HW1 2432   8.160   3.666   2.918 -2.1220 -0.3847  1.3687
  146SOL    HW2 2433   8.251   3.575   2.997 -1.6589  0.2057  1.5278
  147SOL     OW 2434   0.479   5.439   4.289 -0.4041 -0.5220 -0.6693
  147SOL    HW1 2435   0.399   5.398   4.257 -1.2640 -0.2981  1.0560
  147SOL    HW2 2436   0.467   5.443   4.384  1.4669 -0.0685 -0.4162
  148SOL     OW 2437   2.571   3.838   4.895  0.6502  0.2906  0.0175
  148SOL    HW1 2438   2.490   3.850   4.845  0.6812 -1.8557 -0.6724
  148SOL    HW2 2439   2.617   3.922   4.888 -1.8939  1.9040  1.2329
  149SOL     OW 2440   1.991   0.932   0.930  0.0363  0.5686  0.2476
  149SOL    HW1 2441   2.003   0.862   0.866 -1.6738 -0.5001  1.0091
  149SOL    HW2 2442   1.950   1.003   0.880  0.8418  0.6513 -0.3115
  150SOL     OW 2443   4.329   1.495   5.564 -0.2294 -0.5372 -0.0866
  150SOL    HW1 2444   4.391   1.435   5.521 -0.5632  0.3724 -1.9287
  150SOL    HW2 2445   4.348   1.485   5.658  3.0615  0.0488 -0.5507
  151SOL     OW 2446   0.674   2.955   3.437  0.3218 -0.0171  0.3202
  151SOL    HW1 2447   0.734   2.937   3.509  0.4502 -0.2447  0.1568
  151SOL    HW2 2448   0.699   2.893   3.369 -0.6431 -0.6849  0.5533
  152SOL     OW 2449   4.798   8.233   0.346 -0.1386  0.9306  0.3601
  152SOL    HW1 2450   4.736   8.293   0.389 -0.0829  0.2615  1.4255
  152SOL    HW2 2451   4.790   8.253   0.253 -1.5881  1.2227  0.5150
  153SOL     OW 2452   0.580   5.993   1.545 -0.2262 -0.0430  0.3817
  153SOL    HW1 2453   0.494   6.013   1.583 -0.6658 -1.0675 -0.0247
  153SOL    HW2 2454   0.571   5.903   1.513  0.2215  0.6432 -1.8354
  154SOL     OW 2455   2.881   3.313   0.967  0.5242 -0.5622 -0.6142
  154SOL    HW1 2456   2.935   3.387   0.937 -1.0703  1.5273  1.2859
  154SOL    HW2 2457   2.944   3.242   0.981  2.0593  0.1735 -3.0474
  155SOL     OW 2458   5.686   3.334   6.642 -0.0476 -0.4142 -0.2883
  155SOL    HW1 2459   5.727   3.419   6.628  0.6960 -0.4190  1.5484
  155SOL    HW2 2460   5.592   3.352   6.635  0.0561  0.7468  0.8007
  156SOL     OW 2461   8.292   8.270   2.651 -0.1811 -0.0624  0.0985
  156SOL    HW1 2462   8.212   8.312   2.616  1.0501  4.1496  1.6725
  156SOL    HW2 2463   8.362   8.300   2.593  0.6706 -1.1647  0.5149
  157SOL     OW 2464   8.187   7.462   3.858 -0.3284 -0.1833 -0.0850
  157SOL    HW1 2465   8.137   7.412   3.922  1.0384 -1.5408 -0.0181
  157SOL    HW2 2466   8.186   7.409   3.779  0.6262 -0.0312 -0.2144
  158SOL     OW 2467   5.795   8.565   4.278  0.1951  0.0967 -0.3499
  158SOL    HW1 2468   5.747   8.622   4.337  0.7624 -2.8835  3.3455
  158SOL    HW2 2469   5.876   8.613   4.259 -0.8523  1.9429 -0.3399
  159SOL     OW 2470   1.251   6.340   1.148  0.3065  0.6478  0.0536
  159SOL    HW1 2471   1.263   6.403   1.219 -0.5430  0.6425  0.2061
  159SOL    HW2 2472   1.177   6.286   1.175 -0.3984  1.0014 -1.0837
  160SOL     OW 2473   2.758   4.742   5.568  0.8238  0.3483  1.2367
  160SOL    HW1 2474   2.746   4.695   5.650 -1.6722 -0.6628  0.3956
  160SOL    HW2 2475   2.787   4.675   5.506 -2.7495 -0.3357  0.0328
  161SOL     OW 2476   7.956   5.878   7.693 -0.3237 -0.1773 -0.3023
  161SOL    HW1 2477   7.990   5.965   7.716  1.3603 -0.7207 -0.5671
  161SOL    HW2 2478   7.981   5.867   7.601  0.3513 -1.3138 -0.0051
  162SOL     OW 2479   6.392   4.971   7.598  0.4488  0.6511 -0.1361
  162SOL    HW1 2480   6.325   4.919   7.643  1.4721  0.3626  1.1242
  162SOL    HW2 2481   6.465   4.911   7.587  1.0789  1.3964 -0.0743
  163SOL     OW 2482   1.398   2.116   4.486  0.2508 -0.0214 -0.4868
  163SOL    HW1 2483   1.409   2.207   4.512  0.5830  0.1682 -1.2719
  163SOL    HW2 2484   1.398   2.067   4.569 -0.4242  0.7349 -0.0310
  164SOL     OW 2485   8.266   7.588   2.774  0.4611  0.8404  0.2640
  164SOL    HW1 2486   8.219   7.509   2.802  0.9091  0.5750  0.2642
  164SOL    HW2 2487   8.197   7.655   2.768  0.2106  0.6673  1.0929
  165SOL     OW 2488   0.730   7.527   0.720 -0.1752 -0.0482 -0.1079
  165SOL    HW1 2489   0.769   7.590   0.659 -0.3404 -0.3350 -0.5142
  165SOL    HW2 2490   0.759   7.442   0.688 -0.4483 -0.2136  0.0800
  166SOL     OW 2491   2.171   7.503   3.178 -0.2431 -0.2526 -0.4311
  166SOL    HW1 2492   2.143   7.514   3.087  0.1235  1.1423 -0.4058
  166SOL    HW2 2493   2.267   7.500   3.174 -0.2631 -2.2631 -0.2615
  167SOL     OW 2494   6.667   3.252   2.257  0.1328 -0.8267  0.0856
  167SOL    HW1 2495   6.745   3.205   2.226  0.3292  0.3550 -1.3634
  167SOL    HW2 2496   6.610   3.255   2.180 -0.1400  0.6985  0.3241
  168SOL     OW 2497   5.167   8.160   2.704 -0.1262 -0.1341 -0.3099
  168SOL    HW1 2498   5.198   8.071   2.687  2.1532  0.7982 -1.3706
  168SOL    HW2 2499   5.241   8.216   2.683 -1.4489  2.0411  0.4825
  169SOL     OW 2500   4.985   5.186   6.633 -0.5250 -0.2323  0.1577
  169SOL    HW1 2501   4.896   5.155   6.644 -0.2323 -0.9250  0.6381
  169SOL    HW2 2502   5.005   5.231   6.715 -0.1716 -0.7508  0.3597
  170SOL     OW 2503   8.228   2.023   5.462  0.1378  0.1798 -0.3613
  170SOL    HW1 2504   8.270   1.950   5.508 -0.5866  0.5230  0.9000
  170SOL    HW2 2505   8.238   2.002   5.369 -0.8757 -2.0174 -0.0391
  171SOL     OW 2506   0.313   0.395   0.518  0.0641 -0.5410 -0.5703
  171SOL    HW1 2507   0.403   0.426   0.511  0.1077 -0.6407 -0.4637
  171SOL    HW2 2508   0.261   0.462   0.474  0.0845  0.0335  0.2634
  172SOL     OW 2509   4.976   4.510   1.948  0.0753  0.0245  0.2091
  172SOL    HW1 2510   5.005   4.442   2.009 -0.7213  0.9559  1.6811
  172SOL    HW2 2511   4.881   4.502   1.947  0.0295  0.5991 -0.2317
  173SOL     OW 2512   3.350   5.510   4.276  0.3076 -0.4703  0.1679
  173SOL    HW1 2513   3.436   5.547   4.295 -0.4826  2.0427 -0.7536
  173SOL    HW2 2514   3.289   5.565   4.325 -0.7685 -3.1844  2.0996
  174SOL     OW 2515   1.568   7.786   5.475  0.1440  0.5949 -0.5768
  174SOL    HW1 2516   1.541   7.703   5.514  0.5662  0.9872  0.5795
  174SOL    HW2 2517   1.486   7.833   5.460 -0.0885  0.0354 -1.1132
  175SOL     OW 2518   1.280   2.630   1.682  0.4994 -0.4084  0.0917
  175SOL    HW1 2519   1.210   2.690   1.657  1.3721  1.3653  1.6341
  175SOL    HW2 2520   1.280   2.631   1.778  3.3115  0.5903  0.1755
  176SOL     OW 2521   0.522   6.888   5.936 -0.4933  0.0370  0.7396
  176SOL    HW1 2522   0.584   6.889   5.863 -1.6424 -1.2425 -0.3087
  176SOL    HW2 2523   0.515   6.979   5.964 -1.0580  0.8054 -1.6759
  177SOL     OW 2524   2.204   2.555   1.761  0.3549 -0.2666  0.3926
  177SOL    HW1 2525   2.168   2.510   1.837  3.0319 -1.9143  0.8263
  177SOL    HW2 2526   2.158   2.517   1.686 -0.6570 -0.3335  1.0336
  178SOL     OW 2527   8.455   3.118   7.160 -0.1419 -0.1679  0.0895
  178SOL    HW1 2528   8.532   3.167   7.189 -1.1812  0.5204  1.8895
  178SOL    HW2 2529   8.419   3.169   7.088  0.4773  0.0792 -0.0532
  179SOL     OW 2530   5.565   8.275   3.856  0.1101  0.2871 -0.5461
  179SOL    HW1 2531   5.548   8.270   3.950 -1.1339  2.2193 -0.6153
  179SOL    HW2 2532   5.496   8.221   3.817 -0.0598  0.4001 -0.4017
  180SOL     OW 2533   5.771   5.993   5.968  0.2190  0.1926 -0.4693
  180SOL    HW1 2534   5.697   6.046   5.938 -0.7313 -0.8532 -0.0521
  180SOL    HW2 2535   5.746   5.903   5.948  0.7810 -0.2930  0.8662
  181SOL     OW 2536   6.219   4.384   5.888 -0.2560 -0.0415 -0.0055
  181SOL    HW1 2537   6.157   4.376   5.961  1.5830  0.0231  1.6568
  181SOL    HW2 2538   6.250   4.474   5.892 -1.4272  0.5194 -2.0613
  182SOL     OW 2539   7.087   3.639   1.663 -0.1021  0.1669  0.0560
  182SOL    HW1 2540   7.003   3.637   1.615 -1.3267  0.8368  2.0524
  182SOL    HW2 2541   7.122   3.550   1.654 -0.0871  0.3440 -2.3134
  183SOL     OW 2542   0.951   3.417   5.409  0.2370  0.3773 -0.0986
  183SOL    HW1 2543   1.013   3.475   5.453  0.4958 -0.7534  1.0814
  183SOL    HW2 2544   1.006   3.348   5.373 -0.3739 -1.3359  2.0502
  184SOL     OW 2545   8.642   5.016   5.636 -0.0568 -0.3418 -0.6245
  184SOL    HW1 2546   8.673   4.933   5.600 -0.3772 -1.8859  2.4209
  184SOL    HW2 2547   8.722   5.067   5.649  0.5903 -1.6804  0.9433
  185SOL     OW 2548   1.382   4.901   3.705  0.2695  0.1675 -0.7253
  185SOL    HW1 2549   1.426   4.913   3.789  0.6597  0.3696 -0.9569
  185SOL    HW2 2550   1.306   4.847   3.725  0.8461 -0.5300 -0.3823
  186SOL     OW 2551   2.267   6.078   4.671  0.5079  0.4854  0.1075
  186SOL    HW1 2552   2.221   6.162   4.667 -0.4295 -0.0688 -2.0891
  186SOL    HW2 2553   2.360   6.101   4.667  0.2434  1.4093 -1.8117
  187SOL     OW 2554   0.746   6.300   7.763  0.5158  0.3580 -0.2289
  187SOL    HW1 2555   0.785   6.217   7.791 -2.7100 -1.8831 -1.6756
  187SOL    HW2 2556   0.718   6.342   7.845  1.7497 -0.1785  0.4982
  188SOL     OW 2557   3.808   1.392   3.327  0.2529  0.1972 -0.4225
  188SOL    HW1 2558   3.873   1.463   3.324 -0.5737  0.9643 -0.9719
  188SOL    HW2 2559   3.797   1.374   3.420  1.4520 -0.1466 -0.3322
  189SOL     OW 2560   6.225   8.477   0.585 -0.1151 -0.0683  0.2505
  189SOL    HW1 2561   6.179   8.527   0.518  0.5654  2.4942  1.5526
  189SOL    HW2 2562   6.306   8.449   0.542 -0.0074  0.9303 -0.2235
  190SOL     OW 2563   1.856   6.872   4.559  0.6250 -0.0203 -0.1151
  190SOL    HW1 2564   1.829   6.905   4.645 -0.3278 -0.7720 -0.1087
  190SOL    HW2 2565   1.903   6.945   4.519 -2.0660  1.6821 -0.4375
  191SOL     OW 2566   2.873   8.081   0.386  0.2710  0.2511  0.3981
  191SOL    HW1 2567   2.937   8.019   0.423 -0.1654 -0.0752  0.6078
  191SOL    HW2 2568   2.800   8.079   0.447 -0.6043 -0.5327 -0.6411
  192SOL     OW 2569   1.963   4.028   7.024 -0.0142  0.2037 -0.1924
  192SOL    HW1 2570   1.903   4.072   7.084 -0.5521 -0.9011  0.1058
  192SOL    HW2 2571   2.048   4.069   7.040 -0.5466  1.2912 -0.1124
  193SOL     OW 2572   0.566   0.725   4.085  0.3991 -0.4128 -0.0522
  193SOL    HW1 2573   0.500   0.787   4.054  0.3886 -0.3313  0.1323
  193SOL    HW2 2574   0.594   0.760   4.169 -1.1011 -1.7380  1.0592
  194SOL     OW 2575   3.922   0.887   6.173  0.0786  0.1390 -0.2468
  194SOL    HW1 2576   3.994   0.925   6.222 -0.1192  2.3111 -1.5000
  194SOL    HW2 2577   3.937   0.916   6.083 -1.0727 -1.3771 -0.9731
  195SOL     OW 2578   3.804   0.685   2.747 -0.0330  0.2612 -0.2127
  195SOL    HW1 2579   3.737   0.627   2.781 -1.0724  0.3323 -1.9930
  195SOL    HW2 2580   3.767   0.773   2.755  0.7245  0.5137  0.6856
  196SOL     OW 2581   4.495   3.193   1.641 -0.0928 -0.5692  0.2758
  196SOL    HW1 2582   4.460   3.119   1.592 -1.5252  0.3469 -0.1534
  196SOL    HW2 2583   4.454   3.187   1.727  0.7120 -0.9189  0.6530
  197SOL     OW 2584   3.287   5.900   3.906  0.0481  0.1716 -0.3464
  197SOL    HW1 2585   3.360   5.960   3.887  2.5887 -3.1129 -1.9999
  197SOL    HW2 2586   3.268   5.915   3.999  0.2732  3.6529 -0.7115
  198SOL     OW 2587   5.373   7.815   5.236  0.0470 -0.5436 -0.0737
  198SOL    HW1 2588   5.400   7.741   5.291  0.4500 -0.2864  0.0832
  198SOL    HW2 2589   5.455   7.850   5.202 -0.1612 -0.3220 -0.3498
  199SOL     OW 2590   3.705   0.405   1.238 -0.3823  0.1540  0.0530
  199SOL    HW1 2591   3.625   0.453   1.215 -0.6670 -0.0989  0.4971
  199SOL    HW2 2592   3.688   0.315   1.212  0.3488  0.3664 -1.2488
  200SOL     OW 2593   2.139   3.753   8.254  0.0326  0.4322  0.7544
  200SOL    HW1 2594   2.044   3.761   8.242  0.2366 -0.4995 -2.2713
  200SOL    HW2 2595   2.174   3.834   8.217  0.4830 -0.1808 -0.2000
  201SOL     OW 2596   2.188   2.925   4.756 -0.4144 -0.0310 -0.5385
  201SOL    HW1 2597   2.117   2.861   4.757 -1.4382  1.0823  0.1201
  201SOL    HW2 2598   2.146   3.008   4.779  1.1852  0.5758  0.3490
  202SOL     OW 2599   7.913   5.398   2.282 -0.0181  0.4594 -0.4615
  202SOL    HW1 2600   7.898   5.489   2.257  2.1060  1.1353  0.5247
  202SOL    HW2 2601   7.907   5.348   2.201  0.7340  1.7430 -1.3186
  203SOL     OW 2602   4.281   1.150   5.205 -0.5044  0.0271  0.3977
  203SOL    HW1 2603   4.281   1.167   5.111 -1.3013  0.9996  0.5487
  203SOL    HW2 2604   4.372   1.129   5.226 -0.1676  0.5909 -0.4619
  204SOL     OW 2605   8.480   6.006   6.973  0.2305  0.0201  0.0035
  204SOL    HW1 2606   8.514   5.917   6.987 -0.3082  0.1090  2.1907
  204SOL    HW2 2607   8.385   5.995   6.970  0.2204  0.2825 -2.0200
  205SOL     OW 2608   2.456   7.001   4.829 -0.4952  0.1308  0.4052
  205SOL    HW1 2609   2.546   6.981   4.855 -0.3332  0.8541  0.4236
  205SOL    HW2 2610   2.454   7.096   4.822 -0.5767  0.0081 -1.9999
  206SOL     OW 2611   4.912   0.859   8.017 -0.7468  0.0114 -0.2077
  206SOL    HW1 2612   4.829   0.828   7.979  0.0253 -0.2882 -1.7168
  206SOL    HW2 2613   4.895   0.950   8.039 -2.4292 -0.8293  2.4403
  207SOL     OW 2614   8.294   3.453   7.338 -0.0813 -0.3381 -0.1258
  207SOL    HW1 2615   8.319   3.478   7.249  0.6558  0.2858  0.2518
  207SOL    HW2 2616   8.356   3.384   7.362  0.1565 -0.0228  0.1614
  208SOL     OW 2617   8.519   6.374   8.611 -0.2826 -0.4037 -0.4315
  208SOL    HW1 2618   8.600   6.422   8.629 -0.6778  0.8990 -1.9110
  208SOL    HW2 2619   8.548   6.283   8.598  0.8926 -0.0351 -0.5490
  209SOL     OW 2620   6.807   3.658   3.433  0.5488  0.1121  0.4810
  209SOL    HW1 2621   6.733   3.711   3.402 -0.4972 -1.5040  0.0671
  209SOL    HW2 2622   6.853   3.633   3.353 -0.8363 -2.1937  0.3301
  210SOL     OW 2623   6.111   5.211   5.062 -0.5085  0.3392  0.3848
  210SOL    HW1 2624   6.147   5.129   5.028 -1.3136  0.1713 -0.1106
  210SOL    HW2 2625   6.166   5.279   5.025 -2.2206  0.2853 -2.6107
  211SOL     OW 2626   0.201   6.162   5.030  0.0857  0.1405  0.6208
  211SOL    HW1 2627   0.170   6.072   5.043  1.1524 -0.1779  1.0700
  211SOL    HW2 2628   0.170   6.209   5.108 -1.2581  0.4039 -0.0413
  212SOL     OW 2629   0.235   8.450   7.040 -0.1579 -0.2265  0.0893
  212SOL    HW1 2630   0.179   8.409   6.974  0.0673 -0.0532 -0.2131
  212SOL    HW2 2631   0.193   8.430   7.124 -1.0909  0.5327 -0.1793
  213SOL     OW 2632   2.366   6.286   8.233  0.5158  0.1071  0.4973
  213SOL    HW1 2633   2.309   6.330   8.297 -1.0620 -0.5622 -0.4004
  213SOL    HW2 2634   2.376   6.197   8.267 -1.1704 -0.5675 -0.6266
  214SOL     OW 2635   7.446   0.692   0.387  0.0558  0.9474  0.6395
  214SOL    HW1 2636   7.401   0.615   0.352 -0.5189  0.9092  1.4258
  214SOL    HW2 2637   7.421   0.693   0.480  0.7238  1.6130  0.8171
  215SOL     OW 2638   6.275   4.231   2.539  0.3470  0.2159  0.3213
  215SOL    HW1 2639   6.217   4.203   2.469  1.2294  2.5013 -1.4566
  215SOL    HW2 2640   6.340   4.160   2.546  0.0830 -0.1893 -0.9996
  216SOL     OW 2641   7.467   3.853   1.955  0.2542  0.3444  0.1990
  216SOL    HW1 2642   7.480   3.835   2.048  0.2051  0.0230  0.1450
  216SOL    HW2 2643   7.406   3.785   1.925 -1.1219  1.4690  0.3128
  217SOL     OW 2644   0.902   1.951   5.108  0.5562 -0.3071 -0.0061
  217SOL    HW1 2645   0.934   1.940   5.198  1.9944 -0.8504 -0.5566
  217SOL    HW2 2646   0.837   1.882   5.097  0.2239 -0.1169  0.6610
  218SOL     OW 2647   8.133   6.384   1.846 -0.7615 -0.3397 -0.1887
  218SOL    HW1 2648   8.226   6.399   1.862 -1.3141  0.7368  2.5304
  218SOL    HW2 2649   8.101   6.468   1.813 -1.5119  0.8963  3.2412
  219SOL     OW 2650   3.284   5.730   1.736  0.2950  0.0515  0.1240
  219SOL    HW1 2651   3.216   5.794   1.758 -0.4902 -0.2428 -1.2920
  219SOL    HW2 2652   3.314   5.757   1.649 -1.2757 -2.4063 -1.3166
  220SOL     OW 2653   4.409   3.815   1.944 -0.0594 -0.1722  0.3786
  220SOL    HW1 2654   4.468   3.887   1.922 -1.3302  0.7912 -0.0052
  220SOL    HW2 2655   4.446   3.776   2.023  2.2674 -0.9953 -1.0118
  221SOL     OW 2656   3.648   8.877   2.540 -0.1655 -0.3082 -0.7385
  221SOL    HW1 2657   3.625   8.784   2.535 -2.4675  0.1796 -0.4690
  221SOL    HW2 2658   3.599   8.918   2.468  0.4332  0.7881 -0.5567
  222SOL     OW 2659   5.461   7.740   5.873 -0.2336 -0.3129  0.1380
  222SOL    HW1 2660   5.383   7.788   5.900  0.4315 -0.2854  2.1776
  222SOL    HW2 2661   5.485   7.687   5.949  1.0138 -1.2976 -0.8842
  223SOL     OW 2662   3.251   2.507   2.205  0.1175 -0.1312  0.7923
  223SOL    HW1 2663   3.286   2.514   2.116  1.6699  1.9349  1.5109
  223SOL    HW2 2664   3.157   2.492   2.192  0.2541  0.4406 -1.1926
  224SOL     OW 2665   0.925   2.721   4.323  0.0538  0.0430 -0.1542
  224SOL    HW1 2666   0.894   2.635   4.296 -0.2570  0.2407 -0.4251
  224SOL    HW2 2667   0.846   2.768   4.349  0.1704  0.4016 -0.4449
  225SOL     OW 2668   3.682   2.145   5.647  0.5260  0.2386  0.0630
  225SOL    HW1 2669   3.671   2.064   5.696 -1.0412  1.0830  1.2282
  225SOL    HW2 2670   3.776   2.153   5.634  0.7904 -1.2404  0.8237
  226SOL     OW 2671   0.770   1.476   5.081  0.1694 -0.4918  0.0757
  226SOL    HW1 2672   0.807   1.418   5.015  0.0241  0.2452 -0.6634
  226SOL    HW2 2673   0.763   1.422   5.160  0.5041 -1.3263 -0.4632
  227SOL     OW 2674   2.390   3.992   5.871  0.5590  0.0443 -0.1402
  227SOL    HW1 2675   2.459   4.054   5.843 -0.7134  0.4418 -2.6645
  227SOL    HW2 2676   2.309   4.043   5.868 -0.2235 -1.1372  0.1244
  228SOL     OW 2677   0.790   5.809   1.857 -0.0072  0.1847  0.9029
  228SOL    HW1 2678   0.720   5.866   1.889 -0.7869  0.1185 -0.5816
  228SOL    HW2 2679   0.749   5.723   1.847  0.4004  0.0424  0.4059
  229SOL     OW 2680   6.497   8.839   1.945 -0.1373 -0.4716  0.5815
  229SOL    HW1 2681   6.465   8.763   1.993  1.1993 -3.1450 -2.3586
  229SOL    HW2 2682   6.591   8.822   1.935 -0.1156  0.6483 -1.6029
  230SOL     OW 2683   6.520   1.381   7.181  0.1850 -0.0080  0.0130
  230SOL    HW1 2684   6.587   1.313   7.181 -0.3332 -0.5413 -0.8085
  230SOL    HW2 2685   6.540   1.434   7.258  1.6125 -0.0755 -0.2791
  231SOL     OW 2686   0.122   1.971   6.293 -0.3686 -0.3101  0.1363
  231SOL    HW1 2687   0.089   1.916   6.222 -1.5550  0.8778 -0.2961
  231SOL    HW2 2688   0.113   2.061   6.259  1.4498  0.1720  0.8203
  232SOL     OW 2689   1.741   7.557   3.730  0.5121 -0.8826  0.8428
  232SOL    HW1 2690   1.785   7.642   3.727 -0.7045 -0.1635  2.0628
  232SOL    HW2 2691   1.690   7.554   3.649 -0.1661 -0.0131  1.2163
  233SOL     OW 2692   4.545   1.957   5.222 -0.5348  0.4989 -0.1209
  233SOL    HW1 2693   4.507   2.024   5.166 -0.9061  1.2890  1.0462
  233SOL    HW2 2694   4.481   1.886   5.221 -1.1787  1.0621  0.3611
  234SOL     OW 2695   0.199   0.429   3.120  0.0016  0.1128 -0.2300
  234SOL    HW1 2696   0.287   0.394   3.138 -0.1217  0.1291  0.4462
  234SOL    HW2 2697   0.158   0.435   3.207 -1.0109 -0.7912 -0.6199
  235SOL     OW 2698   4.195   6.696   7.337  0.1767 -0.1377 -0.6074
  235SOL    HW1 2699   4.239   6.672   7.256  0.0952  1.7794 -1.2751
  235SOL    HW2 2700   4.245   6.653   7.406  1.5303 -0.0854 -1.5295
  236SOL     OW 2701   4.949   4.329   5.636 -0.6932  0.5449  0.0167
  236SOL    HW1 2702   4.893   4.264   5.593 -1.1538  1.4711 -0.8339
  236SOL    HW2 2703   5.018   4.278   5.678  0.2538 -0.3835 -2.5259
  237SOL     OW 2704   5.298   0.847   1.823  0.1380  0.5603  0.3037
  237SOL    HW1 2705   5.354   0.812   1.892 -0.2933  0.6452  0.7003
  237SOL    HW2 2706   5.326   0.801   1.744  0.2699  0.0681  0.6323
  238SOL     OW 2707   3.665   5.069   1.602  0.4837  0.5792  0.4474
  238SOL    HW1 2708   3.707   4.983   1.611  1.2890  0.8223 -0.7399
  238SOL    HW2 2709   3.710   5.110   1.528 -2.3726  0.5607 -1.4111
  239SOL     OW 2710   2.445   5.577   8.060 -0.0031  0.2756  0.3467
  239SOL    HW1 2711   2.524   5.525   8.070  0.5201  1.2634  1.5270
  239SOL    HW2 2712   2.379   5.515   8.028  1.0716 -0.6868 -0.0357
  240SOL     OW 2713   7.027   3.671   7.354  0.4312  0.3277  0.6424
  240SOL    HW1 2714   6.959   3.625   7.403  0.2816  0.9103  0.9920
  240SOL    HW2 2715   7.107   3.657   7.405  0.7160 -0.9001 -0.1066
  241SOL     OW 2716   2.797   1.340   2.199  0.2901  0.2377  0.1716
  241SOL    HW1 2717   2.783   1.408   2.265  1.2552  2.1057 -1.4374
  241SOL    HW2 2718   2.773   1.259   2.243 -0.3908  1.5374  2.3690
  242SOL     OW 2719   0.606   3.942   6.481 -0.6374  0.2428  0.1472
  242SOL    HW1 2720   0.558   3.938   6.398 -0.6274 -0.5124  0.1719
  242SOL    HW2 2721   0.560   4.008   6.532 -1.5407 -0.3483  0.1005
  243SOL     OW 2722   1.544   7.902   1.707 -1.2704 -0.6625 -0.0442
  243SOL    HW1 2723   1.553   7.806   1.701 -0.4048 -0.5918 -0.0560
  243SOL    HW2 2724   1.634   7.934   1.700 -1.7198  0.2672 -1.8876
  244SOL     OW 2725   5.268   5.727   8.204  0.1218 -0.0527  0.2852
  244SOL    HW1 2726   5.178   5.747   8.231  0.6156  2.3567  0.3574
  244SOL    HW2 2727   5.271   5.751   8.112  0.2767 -1.7513 -0.1769
  245SOL     OW 2728   5.687   4.662   0.407  0.6506 -0.0948  0.5121
  245SOL    HW1 2729   5.686   4.593   0.473  0.3698 -0.4802  0.1013
  245SOL    HW2 2730   5.753   4.634   0.344  1.0466  0.3600  0.7141
  246SOL     OW 2731   4.996   2.691   2.693  0.4040 -0.3907 -0.3365
  246SOL    HW1 2732   5.034   2.639   2.622  0.0071 -0.1518 -0.7302
  246SOL    HW2 2733   5.027   2.649   2.773 -1.1196 -2.1713 -0.6130
  247SOL     OW 2734   1.751   3.084   1.313  0.4357  0.1757  0.2128
  247SOL    HW1 2735   1.688   3.142   1.355  1.1930  0.1088  1.4804
  247SOL    HW2 2736   1.775   3.130   1.232  0.2498  1.1440  0.6923
  248SOL     OW 2737   3.437   1.004   3.911 -1.0070  0.9234  0.3881
  248SOL    HW1 2738   3.526   1.036   3.924 -0.5544  0.0598 -0.4810
  248SOL    HW2 2739   3.410   1.041   3.827 -1.3486  0.8985  0.4832
  249SOL     OW 2740   6.632   4.354   1.437  0.0421  0.1847 -0.0613
  249SOL    HW1 2741   6.538   4.356   1.417  0.1673 -0.2063 -0.6957
  249SOL    HW2 2742   6.651   4.442   1.470  0.2330  1.5804 -3.5075
  250SOL     OW 2743   7.095   4.398   0.643 -0.0351  0.4059 -0.9259
  250SOL    HW1 2744   7.052   4.332   0.588  1.6001 -0.3293 -1.4039
  250SOL    HW2 2745   7.094   4.360   0.731 -2.2523  1.3818 -0.4709
  251SOL     OW 2746   4.369   1.439   0.637  0.5199  0.8747  0.0595
  251SOL    HW1 2747   4.370   1.507   0.705 -0.6018  0.2763  0.7060
  251SOL    HW2 2748   4.454   1.397   0.643  0.4086  0.7768  1.1712
  252SOL     OW 2749   5.278   0.777   7.539 -1.3276 -0.1129 -0.2027
  252SOL    HW1 2750   5.328   0.859   7.534 -2.3385  0.4517 -2.2203
  252SOL    HW2 2751   5.227   0.785   7.620  1.3141 -0.4471  1.5967
  253SOL     OW 2752   2.384   5.605   2.073  0.2243  0.3980 -0.4212
  253SOL    HW1 2753   2.341   5.522   2.093  0.1524  0.5974  0.2836
  253SOL    HW2 2754   2.344   5.668   2.133  1.3911  0.6235  0.1437
  254SOL     OW 2755   4.513   0.782   1.943  0.2844 -0.0630 -0.1459
  254SOL    HW1 2756   4.429   0.803   1.984  0.9655  0.7580  0.8846
  254SOL    HW2 2757   4.578   0.812   2.005  1.3593 -0.5251 -1.0110
  255SOL     OW 2758   8.204   2.540   3.403  0.3051  0.0442 -0.1543
  255SOL    HW1 2759   8.208   2.444   3.409 -0.4018 -0.0715 -1.2399
  255SOL    HW2 2760   8.125   2.564   3.452  0.4594  0.0768  0.0822
  256SOL     OW 2761   1.588   2.160   7.622  0.2770  0.6132  0.3326
  256SOL    HW1 2762   1.632   2.233   7.578 -0.2994  1.0267  0.4363
  256SOL    HW2 2763   1.567   2.194   7.709  0.7004  0.0624  0.6566
  257SOL     OW 2764   7.760   2.557   6.238  0.0431  0.6936  0.3209
  257SOL    HW1 2765   7.744   2.568   6.145 -1.0987 -0.5908  0.3358
  257SOL    HW2 2766   7.734   2.640   6.278 -0.2836  0.9394 -0.4052
  258SOL     OW 2767   4.478   8.083   5.853  0.3882 -0.7422  0.2794
  258SOL    HW1 2768   4.465   8.016   5.920  0.7522 -1.4107 -0.3193
  258SOL    HW2 2769   4.571   8.102   5.855  0.2380  0.0272  0.6983
  259SOL     OW 2770   7.024   5.947   5.120  0.1889  0.5480 -0.1005
  259SOL    HW1 2771   7.073   6.029   5.121 -0.1785  0.8127 -1.4079
  259SOL    HW2 2772   6.932   5.973   5.118  0.0658  0.1075 -0.5167
  260SOL     OW 2773   3.600   8.764   1.948  0.3156  0.0554  0.1935
  260SOL    HW1 2774   3.549   8.811   1.883  0.4079  0.7761  0.6258
  260SOL    HW2 2775   3.592   8.672   1.924 -1.6714  0.0747  0.5933
  261SOL     OW 2776   8.253   1.978   6.433 -0.3396  0.5583  0.4742
  261SOL    HW1 2777   8.348   1.981   6.424 -0.4147  0.6166 -0.4434
  261SOL    HW2 2778   8.222   2.044   6.371 -1.0632 -1.2222 -1.1558
  262SOL     OW 2779   6.439   7.237   6.141  0.0961  0.4369  0.1576
  262SOL    HW1 2780   6.346   7.244   6.116 -0.2285 -0.7817  0.9351
  262SOL    HW2 2781   6.437   7.214   6.234  1.1141 -1.7882 -0.3164
  263SOL     OW 2782   0.268   7.672   2.925 -0.3542 -0.2021 -0.0757
  263SOL    HW1 2783   0.270   7.701   3.016 -0.1134 -0.0831 -0.1173
  263SOL    HW2 2784   0.328   7.731   2.880  0.3245 -0.9186 -0.1191
  264SOL     OW 2785   4.331   5.780   4.781 -0.0090 -0.8860 -0.0714
  264SOL    HW1 2786   4.278   5.836   4.723  0.3058  0.2439  0.6994
  264SOL    HW2 2787   4.306   5.808   4.870  2.7177  0.5480  0.3413
  265SOL     OW 2788   6.160   6.286   7.837 -0.6801  0.3492  0.5293
  265SOL    HW1 2789   6.083   6.256   7.788 -1.4610  2.9656 -0.0360
  265SOL    HW2 2790   6.124   6.322   7.919  0.1477 -0.0707  1.0867
  266SOL     OW 2791   7.695   0.309   4.373 -0.0632  0.3977  0.2552
  266SOL    HW1 2792   7.737   0.223   4.367 -1.0520  0.0107 -2.0165
  266SOL    HW2 2793   7.670   0.330   4.283  3.1829  4.6921  0.0687
  267SOL     OW 2794   2.644   7.330   3.518 -0.0972 -0.2297  0.3512
  267SOL    HW1 2795   2.680   7.328   3.429 -2.5398 -2.3131 -0.7087
  267SOL    HW2 2796   2.570   7.390   3.513 -1.2301 -1.5643  0.4924
  268SOL     OW 2797   5.200   7.734   3.497  0.0367 -0.3749  0.5200
  268SOL    HW1 2798   5.267   7.706   3.435 -0.9955 -1.3860 -0.1858
  268SOL    HW2 2799   5.206   7.671   3.569  0.2964 -0.0432  0.7948
  269SOL     OW 2800   2.067   7.467   6.968 -0.3701  0.3179  0.6259
  269SOL    HW1 2801   2.048   7.556   6.937 -2.4759 -0.7288 -1.3848
  269SOL    HW2 2802   2.152   7.446   6.930 -0.3623  1.0592  0.2113
  270SOL     OW 2803   0.941   1.725   3.975  0.2146 -0.3157 -0.3818
  270SOL    HW1 2804   0.936   1.785   3.900 -0.9187  0.1206  0.0247
  270SOL    HW2 2805   0.870   1.753   4.033 -0.2519 -1.9483 -0.1046
  271SOL     OW 2806   8.188   6.820   2.460 -0.0434  0.2698  0.1204
  271SOL    HW1 2807   8.265   6.872   2.482  0.8831 -1.0293  0.0712
  271SOL    HW2 2808   8.176   6.761   2.535 -1.0561  0.5276  0.1729
  272SOL     OW 2809   8.143   3.720   0.743  0.0151 -0.1733  0.2483
  272SOL    HW1 2810   8.221   3.698   0.793 -0.2906  2.2399  1.9819
  272SOL    HW2 2811   8.071   3.681   0.792 -0.1614  1.0346  1.0067
  273SOL     OW 2812   5.719   5.899   4.566  0.5645 -0.5575  0.3235
  273SOL    HW1 2813   5.782   5.925   4.499 -0.2313 -0.4615 -0.4050
  273SOL    HW2 2814   5.633   5.917   4.527 -0.0078 -2.9172  0.3278
  274SOL     OW 2815   6.278   1.044   7.109  0.0934  0.1850 -0.6074
  274SOL    HW1 2816   6.310   1.087   7.030  0.0030  0.2268 -0.6216
  274SOL    HW2 2817   6.213   0.982   7.077  1.4283 -1.1891 -0.7702
  275SOL     OW 2818   6.071   5.221   0.856  0.0482  0.3924 -0.0413
  275SOL    HW1 2819   6.156   5.201   0.894 -0.0505  0.1583  0.0598
  275SOL    HW2 2820   6.074   5.184   0.768 -0.1525 -0.1120  0.1637
  276SOL     OW 2821   6.326   6.138   4.060  0.2032  0.2856 -0.2679
  276SOL    HW1 2822   6.309   6.210   3.999  2.3002 -0.0450 -1.3478
  276SOL    HW2 2823   6.419   6.146   4.081 -0.2934  0.0201  2.4891
  277SOL     OW 2824   1.041   4.168   7.400 -0.4070  0.1465 -0.0948
  277SOL    HW1 2825   0.977   4.230   7.434 -0.7653 -0.2335 -0.0693
  277SOL    HW2 2826   0.988   4.096   7.364 -0.0587  0.6357 -1.6734
  278SOL     OW 2827   5.369   7.070   6.537 -0.2915 -0.0957  0.5644
  278SOL    HW1 2828   5.288   7.105   6.500  1.2728 -0.0715 -3.3101
  278SOL    HW2 2829   5.408   7.144   6.583 -1.7520  0.2834  1.2462
  279SOL     OW 2830   1.070   7.864   5.574  0.4343 -0.0923  0.1496
  279SOL    HW1 2831   1.121   7.844   5.496  1.4527  1.9532  0.2266
  279SOL    HW2 2832   1.135   7.894   5.638 -0.4690 -0.9671  1.5503
  280SOL     OW 2833   1.894   5.502   8.059 -0.0115 -0.3514 -0.3428
  280SOL    HW1 2834   1.899   5.591   8.022 -2.4915  0.2950  0.6547
  280SOL    HW2 2835   1.870   5.447   7.985 -0.2624  0.1197 -0.6165
  281SOL     OW 2836   0.141   3.045   7.339 -0.2503 -0.3753 -0.2537
  281SOL    HW1 2837   0.067   3.008   7.291 -0.6693 -2.0030  1.5208
  281SOL    HW2 2838   0.211   3.053   7.274 -1.5235 -0.1680 -1.6447
  282SOL     OW 2839   0.522   6.473   2.202 -0.0347 -0.0909  0.4396
  282SOL    HW1 2840   0.463   6.546   2.184 -1.0363 -1.0736 -0.3993
  282SOL    HW2 2841   0.605   6.514   2.225 -0.9124  1.3207  1.2046
  283SOL     OW 2842   5.959   5.632   7.581 -0.7411  0.2504 -0.1111
  283SOL    HW1 2843   6.021   5.672   7.641  1.0816 -0.6477 -1.3083
  283SOL    HW2 2844   5.907   5.705   7.547  2.4918  1.7451 -2.2693
  284SOL     OW 2845   7.673   7.246   7.051 -0.1501 -0.1075 -0.2414
  284SOL    HW1 2846   7.705   7.329   7.015  1.5472 -1.1310 -1.2493
  284SOL    HW2 2847   7.741   7.219   7.113  0.2047 -1.5786 -1.2323
  285SOL     OW 2848   3.583   0.651   8.347  0.0437  0.1132 -0.2918
  285SOL    HW1 2849   3.666   0.685   8.312  0.3530 -1.0960 -0.7602
  285SOL    HW2 2850   3.564   0.709   8.421  1.2812  0.4509 -0.2078
  286SOL     OW 2851   1.215   1.380   8.188 -0.0835  0.3318  0.2305
  286SOL    HW1 2852   1.262   1.463   8.193 -0.8922  0.7558  1.0555
  286SOL    HW2 2853   1.257   1.333   8.116  2.4044  0.1621  1.6792
  287SOL     OW 2854   6.204   7.319   0.667 -0.2020  0.4547 -0.5581
  287SOL    HW1 2855   6.294   7.289   0.656  0.0759  1.2872 -0.5902
  287SOL    HW2 2856   6.151   7.249   0.629  0.4173 -0.1783 -0.2648
  288SOL     OW 2857   3.290   8.081   3.670  0.6581 -0.2107  0.1967
  288SOL    HW1 2858   3.238   8.138   3.614 -0.4357 -0.9538  0.4101
  288SOL    HW2 2859   3.344   8.141   3.722  1.6940  0.4807 -1.6043
  289SOL     OW 2860   7.911   4.952   3.859 -0.0846 -0.1200 -0.4916
  289SOL    HW1 2861   7.952   5.015   3.917 -0.5602  1.0686 -1.4119
  289SOL    HW2 2862   7.933   4.982   3.771 -2.7194  0.4736 -1.0307
  290SOL     OW 2863   8.815   3.058   0.240 -0.2071 -0.1503 -1.0906
  290SOL    HW1 2864   8.775   3.041   0.155  0.5225  1.3083 -1.7561
  290SOL    HW2 2865   8.745   3.099   0.291 -0.1023  0.7966 -1.6733
  291SOL     OW 2866   1.313   1.113   4.062 -0.3014 -0.4259 -0.3197
  291SOL    HW1 2867   1.217   1.122   4.069 -0.1797  0.6103  0.4469
  291SOL    HW2 2868   1.340   1.084   4.149  0.1540  0.2054 -0.2405
  292SOL     OW 2869   4.651   4.840   7.107  0.8687  0.4593  0.3989
  292SOL    HW1 2870   4.653   4.933   7.086  2.9854  0.7996  1.7948
  292SOL    HW2 2871   4.623   4.836   7.199  1.1704 -0.2484  0.4695
  293SOL     OW 2872   1.923   7.548   2.627 -0.0984 -0.0191 -0.1367
  293SOL    HW1 2873   1.995   7.579   2.681  1.2119  0.9408 -2.2872
  293SOL    HW2 2874   1.846   7.593   2.663  0.8960  1.4385  0.2777
  294SOL     OW 2875   1.743   7.463   7.144  0.2397  0.0460 -0.3046
  294SOL    HW1 2876   1.815   7.492   7.200 -1.2273  0.3491  1.5566
  294SOL    HW2 2877   1.737   7.369   7.160 -1.8131  0.4914  2.2532
  295SOL     OW 2878   5.348   7.354   3.305 -0.2301 -0.3652  0.0334
  295SOL    HW1 2879   5.383   7.284   3.251  1.1079  0.0038  0.4012
  295SOL    HW2 2880   5.420   7.380   3.362 -0.6841  1.3262 -0.1043
  296SOL     OW 2881   8.579   4.048   5.196  0.6855 -0.7175 -0.3855
  296SOL    HW1 2882   8.519   3.974   5.186  1.3738 -1.1650 -1.3232
  296SOL    HW2 2883   8.584   4.062   5.291 -0.0009 -1.4115 -0.2414
  297SOL     OW 2884   6.629   3.421   2.467 -0.2501  1.1110  0.1354
  297SOL    HW1 2885   6.576   3.426   2.388  0.2657 -0.7629 -0.3918
  297SOL    HW2 2886   6.688   3.346   2.451  1.5393  2.1993  1.2784
  298SOL     OW 2887   0.126   7.504   8.219 -0.3264  0.3595 -0.3100
  298SOL    HW1 2888   0.131   7.439   8.290 -3.9069 -0.6156 -0.7514
  298SOL    HW2 2889   0.119   7.588   8.264 -0.7629 -0.0662  0.4439
  299SOL     OW 2890   1.335   0.184   1.879 -0.4760  0.4673  0.4287
  299SOL    HW1 2891   1.426   0.155   1.892  0.3977  2.5769 -0.6025
  299SOL    HW2 2892   1.287   0.103   1.861  1.7241 -0.4796 -1.7447
  300SOL     OW 2893   6.266   3.547   2.021  0.7210 -0.1076 -0.3675
  300SOL    HW1 2894   6.321   3.500   1.958  1.9192  2.5876 -1.4671
  300SOL    HW2 2895   6.196   3.585   1.968  0.2223  0.0173  0.3703
  301SOL     OW 2896   1.871   1.327   8.447  0.0757 -0.4341 -0.1981
  301SOL    HW1 2897   1.906   1.416   8.438  1.0460 -0.8061 -0.1755
  301SOL    HW2 2898   1.945   1.270   8.426 -1.0060 -1.2397 -1.9570
  302SOL     OW 2899   8.802   0.947   0.781  0.1441  0.1572 -0.0494
  302SOL    HW1 2900   8.812   0.868   0.835  0.1045 -0.0336 -0.3218
  302SOL    HW2 2901   8.732   0.995   0.824  1.1504  0.7664  0.9811
  303SOL     OW 2902   5.685   0.588   8.095 -0.7811 -0.4940 -0.3822
  303SOL    HW1 2903   5.632   0.666   8.108 -1.0275 -0.5469 -1.0501
  303SOL    HW2 2904   5.666   0.533   8.172 -0.9030 -0.0684 -0.1070
  304SOL     OW 2905   8.596   5.913   2.938 -1.0078 -0.1089  0.6339
  304SOL    HW1 2906   8.561   5.834   2.979 -0.2686 -0.1253  1.2531
  304SOL    HW2 2907   8.520   5.968   2.921 -1.4078 -0.4813  1.2113
  305SOL     OW 2908   4.724   4.133   4.283 -0.3861  0.4379 -0.0428
  305SOL    HW1 2909   4.657   4.163   4.222  0.3110  0.3427 -0.8751
  305SOL    HW2 2910   4.703   4.041   4.298 -0.2886  0.3319 -0.5253
  306SOL     OW 2911   8.415   4.958   4.143  0.9138  0.5323 -0.2210
  306SOL    HW1 2912   8.465   4.900   4.200  0.9401  0.1558 -0.6194
  306SOL    HW2 2913   8.347   4.902   4.105 -0.7088  1.3052  1.3389
  307SOL     OW 2914   8.791   4.239   3.410  0.1518  0.1339  0.5892
  307SOL    HW1 2915   8.830   4.322   3.438  0.4501 -0.4877  2.1041
  307SOL    HW2 2916   8.707   4.236   3.456 -0.1620 -0.1053  0.0083
  308SOL     OW 2917   7.496   8.788   8.207  0.5233 -0.7814  0.1302
  308SOL    HW1 2918   7.563   8.742   8.158  1.3174 -0.3244  0.7630
  308SOL    HW2 2919   7.510   8.760   8.298  0.6583  0.2695  0.4395
  309SOL     OW 2920   0.276   3.549   7.948 -0.3560  0.0382 -0.9916
  309SOL    HW1 2921   0.366   3.574   7.971 -0.1459 -0.9439 -0.7006
  309SOL    HW2 2922   0.224   3.625   7.974  0.5767  1.4445 -2.9642
  310SOL     OW 2923   3.993   5.557   3.446 -0.1123 -0.0520 -0.7348
  310SOL    HW1 2924   3.900   5.534   3.440 -0.6764  2.0028 -0.8199
  310SOL    HW2 2925   4.008   5.572   3.539  0.3901 -1.2264 -0.6097
  311SOL     OW 2926   6.088   6.715   5.450  0.2729  0.7154 -0.5426
  311SOL    HW1 2927   6.068   6.801   5.414  1.3376  1.4237  0.4925
  311SOL    HW2 2928   6.080   6.726   5.545  1.1549 -0.1144 -0.3512
  312SOL     OW 2929   0.896   8.328   1.574  0.6577 -0.2065 -0.5060
  312SOL    HW1 2930   0.825   8.372   1.620 -1.5176  0.6306 -4.3242
  312SOL    HW2 2931   0.956   8.399   1.550 -0.4754  0.1053 -2.6185
  313SOL     OW 2932   6.030   7.089   6.361  0.5959 -0.0100  0.8670
  313SOL    HW1 2933   5.939   7.090   6.388  0.3441  0.1643  0.0414
  313SOL    HW2 2934   6.073   7.030   6.423 -0.1927 -0.5592  0.9083
  314SOL     OW 2935   0.945   1.882   7.718 -0.7051 -0.0151  0.1290
  314SOL    HW1 2936   0.986   1.801   7.687  1.0462  1.0088 -0.3814
  314SOL    HW2 2937   0.874   1.898   7.656 -0.5090 -0.7019 -0.2854
  315SOL     OW 2938   8.723   0.125   3.637  0.1828  0.4355  0.0122
  315SOL    HW1 2939   8.705   0.198   3.696  0.7341  0.1764  0.5104
  315SOL    HW2 2940   8.687   0.152   3.553  1.4816  1.8327 -0.1353
  316SOL     OW 2941   3.036   4.251   2.145  0.6513  1.1153 -0.2441
  316SOL    HW1 2942   3.099   4.216   2.208  2.9606  0.8453 -2.5424
  316SOL    HW2 2943   3.001   4.174   2.100  0.0844  1.3874 -0.2858
  317SOL     OW 2944   3.498   3.015   0.993 -0.0809  0.2829 -0.5016
  317SOL    HW1 2945   3.585   3.003   1.030 -0.5731 -0.3434  0.4750
  317SOL    HW2 2946   3.461   3.090   1.041 -0.6693 -0.4484  0.2025
  318SOL     OW 2947   7.954   3.969   5.252 -0.7633  0.0601 -0.1551
  318SOL    HW1 2948   7.979   3.983   5.160 -0.2368 -0.3796 -0.0827
  318SOL    HW2 2949   7.895   4.042   5.272  0.1016  0.8711 -0.4693
  319SOL     OW 2950   8.322   8.302   4.290  0.5506  0.1741  0.1217
  319SOL    HW1 2951   8.298   8.391   4.263  0.4545 -0.1446 -0.8730
  319SOL    HW2 2952   8.272   8.288   4.371 -1.4441  0.1197 -1.0602
  320SOL     OW 2953   4.641   2.052   7.569 -0.1270 -0.1700 -0.0959
  320SOL    HW1 2954   4.697   2.131   7.570  0.8230 -0.8336  0.6760
  320SOL    HW2 2955   4.666   2.007   7.488  0.6248 -0.5686  0.3491
  321SOL     OW 2956   4.370   8.071   8.534  0.0802 -0.0585 -0.0251
  321SOL    HW1 2957   4.398   7.981   8.522 -1.6496 -0.6417  0.0519
  321SOL    HW2 2958   4.377   8.111   8.447  1.6012 -0.0039  0.0943
  322SOL     OW 2959   1.406   4.753   0.447  0.0474  0.3988 -0.4086
  322SOL    HW1 2960   1.310   4.751   0.445 -0.0859  2.9889  0.5239
  322SOL    HW2 2961   1.428   4.785   0.534  1.7961 -0.1656 -0.5940
  323SOL     OW 2962   6.566   7.192   3.119  0.9530 -0.1533 -0.2225
  323SOL    HW1 2963   6.555   7.099   3.101 -0.5710 -0.3421  1.3810
  323SOL    HW2 2964   6.486   7.217   3.166  1.2910  1.9935 -0.6819
  324SOL     OW 2965   4.537   8.230   4.902 -0.2317  0.9278  0.5073
  324SOL    HW1 2966   4.442   8.226   4.917 -0.2817 -1.1545 -0.0365
  324SOL    HW2 2967   4.575   8.186   4.978  0.1824  0.2502 -0.0762
  325SOL     OW 2968   3.698   1.951   8.175 -0.0938 -0.3320 -0.4977
  325SOL    HW1 2969   3.685   2.039   8.139  0.9612  0.1519  0.2650
  325SOL    HW2 2970   3.730   1.899   8.102  0.6063  0.2694 -0.6256
  326SOL     OW 2971   2.982   4.430   0.543 -0.1829  0.2932 -0.0568
  326SOL    HW1 2972   2.940   4.501   0.495 -0.1446 -0.2641 -0.9338
  326SOL    HW2 2973   2.917   4.360   0.545  0.1130  0.0129 -0.0130
  327SOL     OW 2974   2.361   6.547   3.634 -0.0091  0.1002  0.8894
  327SOL    HW1 2975   2.379   6.470   3.580 -0.0781  1.0420 -0.5292
  327SOL    HW2 2976   2.287   6.521   3.689  0.0592 -0.8833  0.5364
  328SOL     OW 2977   2.343   4.178   2.316 -0.2915  0.2889 -0.2451
  328SOL    HW1 2978   2.255   4.150   2.292  0.3138 -1.0741 -1.0223
  328SOL    HW2 2979   2.332   4.224   2.400 -1.4109 -2.3718  1.1939
  329SOL     OW 2980   6.944   6.841   2.519 -0.3110 -0.0218 -0.4369
  329SOL    HW1 2981   6.898   6.868   2.598  2.2808  1.4490  0.7016
  329SOL    HW2 2982   6.887   6.867   2.447 -1.9667  0.1472  0.8721
  330SOL     OW 2983   6.964   2.576   2.508  0.0911 -0.4360  0.2996
  330SOL    HW1 2984   6.922   2.639   2.450  0.4814 -2.0304 -1.8528
  330SOL    HW2 2985   6.926   2.593   2.594 -0.8661  1.7298 -0.4895
  331SOL     OW 2986   7.705   6.452   1.920  0.2150  0.0943 -0.4369
  331SOL    HW1 2987   7.635   6.387   1.917 -1.8362  2.1287  0.4389
  331SOL    HW2 2988   7.709   6.487   1.831  0.3165 -0.2207 -0.5568
  332SOL     OW 2989   3.836   3.862   4.259  0.2494 -0.0839 -0.5185
  332SOL    HW1 2990   3.854   3.840   4.351 -2.8787  3.4731  1.2391
  332SOL    HW2 2991   3.919   3.897   4.226  0.9557  0.4861  1.6851
  333SOL     OW 2992   8.636   0.498   8.220  0.0607 -0.2807 -0.7828
  333SOL    HW1 2993   8.670   0.505   8.309 -0.1865  1.4728 -0.7987
  333SOL    HW2 2994   8.700   0.444   8.174  0.3782 -0.9007  0.3453
  334SOL     OW 2995   3.900   5.181   5.702  0.2559 -0.5688  0.5414
  334SOL    HW1 2996   3.878   5.098   5.744 -2.8732 -1.3875 -2.3000
  334SOL    HW2 2997   3.829   5.240   5.728  0.3031 -0.0146 -0.5280
  335SOL     OW 2998   4.455   7.609   8.123  0.2212 -0.4110  0.4584
  335SOL    HW1 2999   4.441   7.675   8.055 -0.7385 -0.0839  0.9553
  335SOL    HW2 3000   4.533   7.639   8.169  0.5040 -0.2879 -0.0904
  336SOL     OW 3001   8.730   8.891   5.108  0.2551 -0.1305  0.0977
  336SOL    HW1 3002   8.637   8.883   5.129 -0.4029  3.9353 -0.4813
  336SOL    HW2 3003   8.775   8.840   5.176 -2.2534  1.3506  3.0766
  337SOL     OW 3004   1.940   3.439   6.980 -0.4697 -0.0347 -0.4905
  337SOL    HW1 3005   2.007   3.439   7.048 -0.7120  0.9306 -0.2323
  337SOL    HW2 3006   1.932   3.347   6.954 -1.0567 -0.5766  1.4673
  338SOL     OW 3007   8.773   8.168   0.403  0.5735  0.4071 -0.1863
  338SOL    HW1 3008   8.856   8.148   0.359  0.6938  0.2988  0.0863
  338SOL    HW2 3009   8.713   8.191   0.332  0.7535  0.1893 -0.4124
  339SOL     OW 3010   7.644   1.434   0.416  0.4667  0.0531  0.0158
  339SOL    HW1 3011   7.734   1.455   0.393  0.1956  2.0929  0.6451
  339SOL    HW2 3012   7.593   1.462   0.341  0.2005  0.5852  0.3890
  340SOL     OW 3013   0.551   0.269   4.805 -0.3215 -0.2178  0.7999
  340SOL    HW1 3014   0.473   0.300   4.759  0.6271 -0.3538 -0.9790
  340SOL    HW2 3015   0.602   0.348   4.823 -0.0795 -0.2865  0.4278
  341SOL     OW 3016   4.853   8.028   2.305  0.5313  0.1797  0.5362
  341SOL    HW1 3017   4.893   8.054   2.389  0.8326  0.1523  0.4023
  341SOL    HW2 3018   4.826   7.938   2.318  0.1541  0.3234  0.7592
  342SOL     OW 3019   4.031   8.026   4.644  0.1978 -0.4454 -0.1733
  342SOL    HW1 3020   4.078   8.047   4.725  0.6803  0.3541 -0.6404
  342SOL    HW2 3021   3.942   8.059   4.658  0.4655  0.3344 -0.2123
  343SOL     OW 3022   7.387   7.645   3.932  0.0135 -0.0304 -0.1834
  343SOL    HW1 3023   7.440   7.568   3.914 -0.9540 -0.6032 -0.6724
  343SOL    HW2 3024   7.297   7.613   3.933 -0.2617  0.5364  2.5434
  344SOL     OW 3025   4.343   3.217   3.222 -0.1509 -0.2043  0.7149
  344SOL    HW1 3026   4.346   3.122   3.213  1.5866 -0.1163  0.0513
  344SOL    HW2 3027   4.262   3.242   3.178 -1.6244 -1.4903  2.5173
  345SOL     OW 3028   0.627   1.259   7.115  0.0755  0.1406 -0.2978
  345SOL    HW1 3029   0.704   1.244   7.059  2.4396  1.7563  2.2780
  345SOL    HW2 3030   0.650   1.218   7.198 -1.8761  0.7157  0.5795
  346SOL     OW 3031   7.147   3.480   1.287 -0.1552  0.5250 -0.5780
  346SOL    HW1 3032   7.220   3.539   1.269  1.1712 -0.2523  1.8893
  346SOL    HW2 3033   7.186   3.406   1.333 -2.4757  0.0680  0.8151
  347SOL     OW 3034   6.685   2.569   2.730  0.4675  0.1497  0.3741
  347SOL    HW1 3035   6.634   2.642   2.694  0.5512  0.4131  0.7948
  347SOL    HW2 3036   6.666   2.496   2.670 -1.3905 -0.1032  1.2066
  348SOL     OW 3037   1.996   8.502   3.533 -0.2070 -0.0485 -0.2035
  348SOL    HW1 3038   1.980   8.453   3.452 -1.9382  0.9799 -0.5102
  348SOL    HW2 3039   1.911   8.507   3.576  0.6138 -0.2838  1.5606
  349SOL     OW 3040   2.661   5.376   7.770  0.2267  0.1056  0.6119
  349SOL    HW1 3041   2.686   5.468   7.758 -0.5287  0.3014  0.4773
  349SOL    HW2 3042   2.721   5.328   7.713  0.8208  0.4880  0.9073
  350SOL     OW 3043   1.612   3.556   4.795  0.1329  0.5711  1.3515
  350SOL    HW1 3044   1.659   3.476   4.820  0.5149  0.8059  1.3811
  350SOL    HW2 3045   1.680   3.616   4.765 -0.3141  0.2833 -0.3319
  351SOL     OW 3046   4.553   1.285   7.026 -0.4167 -0.5076  0.5779
  351SOL    HW1 3047   4.597   1.210   7.066  0.6184  0.3840  1.1290
  351SOL    HW2 3048   4.605   1.305   6.949 -0.8434 -0.5063  0.2869
  352SOL     OW 3049   3.905   2.298   2.085 -0.0459 -0.1912  0.0679
  352SOL    HW1 3050   3.974   2.348   2.128 -0.6565  0.0304  0.8009
  352SOL    HW2 3051   3.835   2.361   2.069  0.4704 -0.0556 -2.0360
  353SOL     OW 3052   3.935   6.446   1.828  0.2703  0.7592 -0.0300
  353SOL    HW1 3053   3.950   6.538   1.808  0.1675  0.2611 -2.8059
  353SOL    HW2 3054   3.841   6.433   1.814  0.1268  0.3467  1.1224
  354SOL     OW 3055   4.346   3.098   8.058  0.2826 -0.5730 -0.3942
  354SOL    HW1 3056   4.315   3.149   8.132  0.3072 -0.1779 -0.6480
  354SOL    HW2 3057   4.293   3.018   8.058  0.2687 -0.5628  0.0302
  355SOL     OW 3058   5.743   4.412   6.149  0.4150  0.3440 -0.3231
  355SOL    HW1 3059   5.683   4.344   6.180  1.2974  0.0477  0.7919
  355SOL    HW2 3060   5.746   4.476   6.220  1.3239  0.4238 -0.4285
  356SOL     OW 3061   8.595   4.368   6.577  0.2460 -0.0673 -0.0154
  356SOL    HW1 3062   8.516   4.356   6.630  0.7784  3.6747  1.9967
  356SOL    HW2 3063   8.565   4.413   6.498  0.1134 -0.6379 -0.2926
  357SOL     OW 3064   8.864   5.473   4.210 -0.2807  0.5064 -0.2602
  357SOL    HW1 3065   8.941   5.527   4.195  0.3977  0.0447  1.3365
  357SOL    HW2 3066   8.899   5.384   4.221 -1.1765  0.0730 -0.7569
  358SOL     OW 3067   2.882   7.883   4.854  0.0792  0.4944 -0.7469
  358SOL    HW1 3068   2.791   7.893   4.826 -0.1372  2.1611  0.4502
  358SOL    HW2 3069   2.888   7.932   4.936  2.3554  1.5491 -1.4672
  359SOL     OW 3070   7.506   5.047   5.377  0.5283  0.0232 -0.1204
  359SOL    HW1 3071   7.596   5.019   5.365  0.2782 -1.5071  1.1944
  359SOL    HW2 3072   7.466   4.978   5.430 -0.9583  1.4831  0.7874
  360SOL     OW 3073   2.902   4.712   3.912 -0.4090 -0.2615 -0.7671
  360SOL    HW1 3074   2.955   4.709   3.993  0.7333 -2.7324 -1.4826
  360SOL    HW2 3075   2.939   4.784   3.862 -0.0003  0.2190  0.1898
  361SOL     OW 3076   6.732   3.925   6.935 -0.3714 -0.6977  0.2495
  361SOL    HW1 3077   6.710   4.003   6.885  1.1187  0.3120  1.0827
  361SOL    HW2 3078   6.703   3.852   6.881  1.9570  0.2949 -2.5908
  362SOL     OW 3079   2.308   3.029   4.421  0.4540  0.6502 -0.2312
  362SOL    HW1 3080   2.237   3.074   4.467 -0.5453 -0.7206 -0.3685
  362SOL    HW2 3081   2.363   2.995   4.491  0.3131  0.6824 -0.1027
  363SOL     OW 3082   2.850   6.103   7.646 -0.5287 -0.4322  0.3811
  363SOL    HW1 3083   2.774   6.092   7.588 -1.7540  0.7032  1.7163
  363SOL    HW2 3084   2.896   6.178   7.611  0.3439 -1.4545 -0.7640
  364SOL     OW 3085   0.266   6.389   8.253 -0.6497  0.0991 -0.2096
  364SOL    HW1 3086   0.282   6.480   8.276  1.8561  0.1125 -1.6571
  364SOL    HW2 3087   0.316   6.339   8.317 -2.8278 -0.3748  1.2118
  365SOL     OW 3088   3.839   1.052   2.066 -0.2079  0.7956  0.2959
  365SOL    HW1 3089   3.754   1.017   2.040 -0.2754  0.1112  1.3711
  365SOL    HW2 3090   3.859   1.119   2.001 -0.8965 -0.0381 -0.8022
  366SOL     OW 3091   3.618   4.111   2.112  0.8601  0.0156 -0.4625
  366SOL    HW1 3092   3.673   4.068   2.178  1.4850  0.2342 -0.8341
  366SOL    HW2 3093   3.678   4.167   2.063  0.1157  1.0595 -0.2069
  367SOL     OW 3094   1.596   1.829   1.163  0.3406  0.4485  0.2354
  367SOL    HW1 3095   1.691   1.826   1.155  0.4854  2.1364  1.0414
  367SOL    HW2 3096   1.575   1.761   1.228  1.1229  0.9342  1.0137
  368SOL     OW 3097   0.488   5.750   1.421 -0.5424  0.5605 -0.0932
  368SOL    HW1 3098   0.445   5.682   1.472 -1.1328  0.3780 -0.8203
  368SOL    HW2 3099   0.502   5.710   1.335  1.5706  0.4118  0.2463
  369SOL     OW 3100   4.798   7.011   5.274  0.2798 -0.0881 -0.3376
  369SOL    HW1 3101   4.800   6.996   5.179 -0.6752 -1.3735 -0.1917
  369SOL    HW2 3102   4.809   6.923   5.312  1.5406  0.5098  0.7694
  370SOL     OW 3103   8.055   1.047   0.220  0.0473  0.2820 -0.6647
  370SOL    HW1 3104   8.033   0.954   0.208 -0.3721  0.5255 -1.8566
  370SOL    HW2 3105   8.025   1.089   0.140  0.2708  1.4527 -0.1440
  371SOL     OW 3106   8.360   2.725   8.659  0.6948  0.0938 -0.3887
  371SOL    HW1 3107   8.315   2.740   8.576  0.9689 -0.8702 -0.7265
  371SOL    HW2 3108   8.361   2.810   8.702  0.7740  0.6555 -1.4844
  372SOL     OW 3109   8.649   1.266   6.675  0.1056 -0.3900 -0.2584
  372SOL    HW1 3110   8.567   1.259   6.626 -1.1815 -0.2041  1.7491
  372SOL    HW2 3111   8.705   1.197   6.639 -1.1390 -0.9059 -1.2750
  373SOL     OW 3112   5.149   0.317   2.116  0.3171 -0.7877  0.3543
  373SOL    HW1 3113   5.061   0.329   2.153  1.3453  0.8009  2.4751
  373SOL    HW2 3114   5.139   0.341   2.024 -1.6548 -1.5727  0.3052
  374SOL     OW 3115   6.913   8.851   4.100 -0.2206 -0.5503 -0.0118
  374SOL    HW1 3116   6.932   8.924   4.041  0.1236 -0.1364  0.6029
  374SOL    HW2 3117   6.959   8.873   4.181 -3.0588  0.3529  1.4837
  375SOL     OW 3118   1.104   5.507   6.740  0.0017  0.3850 -0.2617
  375SOL    HW1 3119   1.063   5.588   6.711 -1.9357 -0.1051  0.9062
  375SOL    HW2 3120   1.198   5.524   6.736 -0.3509  2.5396 -0.3923
  376SOL     OW 3121   1.990   2.171   7.103 -0.0158  0.6173  0.0073
  376SOL    HW1 3122   1.965   2.123   7.183  1.5006  0.3621  0.3806
  376SOL    HW2 3123   1.994   2.262   7.130 -0.9584  0.7149 -0.1745
  377SOL     OW 3124   5.095   0.139   1.725 -0.0943 -0.7525 -0.1512
  377SOL    HW1 3125   5.104   0.062   1.781 -0.4168 -0.3671  0.4449
  377SOL    HW2 3126   5.106   0.214   1.784 -0.1101 -0.3376 -0.6619
  378SOL     OW 3127   0.381   6.027   6.533 -0.2867  0.2541  0.0327
  378SOL    HW1 3128   0.301   6.057   6.574 -1.0149 -0.6509 -0.6705
  378SOL    HW2 3129   0.352   5.986   6.451  1.0438  1.4262 -1.0814
  379SOL     OW 3130   7.268   7.174   4.000  0.4418  0.1421 -0.0196
  379SOL    HW1 3131   7.227   7.154   4.084 -1.0614 -0.6246 -0.9026
  379SOL    HW2 3132   7.361   7.187   4.022  0.1348 -0.2802  1.7132
  380SOL     OW 3133   3.766   1.692   4.229  0.3627  0.1610 -0.2935
  380SOL    HW1 3134   3.814   1.710   4.310  0.0703  0.2770 -0.1453
  380SOL    HW2 3135   3.768   1.597   4.221 -2.1698 -0.1376  1.4522
  381SOL     OW 3136   2.087   4.961   2.423  0.3951  0.1689  0.2457
  381SOL    HW1 3137   2.038   4.906   2.484  0.2792 -0.2502 -0.2204
  381SOL    HW2 3138   2.179   4.944   2.443  0.3634  0.4728  0.6868
  382SOL     OW 3139   2.000   6.652   7.151  0.8608 -0.2845 -0.0235
  382SOL    HW1 3140   1.935   6.716   7.179  2.0920  0.4980  1.1502
  382SOL    HW2 3141   2.054   6.700   7.087  0.8364 -0.6527 -0.3244
  383SOL     OW 3142   2.101   1.002   4.351 -0.0272  0.2753 -0.1972
  383SOL    HW1 3143   2.162   0.990   4.425 -0.3819  0.3506  0.1108
  383SOL    HW2 3144   2.107   0.920   4.302  1.0145  0.6378 -0.6939
  384SOL     OW 3145   0.626   2.805   2.131 -0.3963 -0.5682  0.3912
  384SOL    HW1 3146   0.541   2.836   2.102 -0.1884 -0.5662 -0.2541
  384SOL    HW2 3147   0.670   2.777   2.050  0.1697 -0.6724  0.7237
  385SOL     OW 3148   3.673   4.447   3.743 -0.2172  0.2668 -0.5677
  385SOL    HW1 3149   3.743   4.388   3.768 -0.6755  0.5954  1.6672
  385SOL    HW2 3150   3.593   4.398   3.759 -0.5462  0.5748 -1.2273
  386SOL     OW 3151   1.875   2.727   1.742  0.5460  0.0229  0.6506
  386SOL    HW1 3152   1.809   2.687   1.799 -0.9251  0.8256 -0.4253
  386SOL    HW2 3153   1.852   2.820   1.739  1.0786  0.1385 -0.6086
  387SOL     OW 3154   7.642   7.097   0.416  0.0664 -0.5874 -0.0778
  387SOL    HW1 3155   7.602   7.010   0.413 -0.1068 -0.5518  1.0311
  387SOL    HW2 3156   7.715   7.092   0.353  0.8004 -1.9164  0.8376
  388SOL     OW 3157   0.969   5.100   8.441 -0.1601 -0.1186 -0.1352
  388SOL    HW1 3158   0.890   5.148   8.414  0.6375  0.4482 -1.5910
  388SOL    HW2 3159   0.999   5.057   8.361  0.8779 -0.5168  0.4503
  389SOL     OW 3160   5.308   6.021   4.092  1.0752  0.3166  0.1450
  389SOL    HW1 3161   5.347   5.958   4.031  2.0944  0.8776  0.2023
  389SOL    HW2 3162   5.347   6.000   4.176  1.5442  1.1159  0.1379
  390SOL     OW 3163   8.025   0.661   5.057 -0.3224 -0.0794  0.0368
  390SOL    HW1 3164   8.090   0.731   5.055 -0.3157 -0.0817  0.1950
  390SOL    HW2 3165   7.945   0.701   5.025 -0.0904 -0.2341 -0.7783
  391SOL     OW 3166   0.358   8.351   3.987 -0.0994  1.1219 -0.0789
  391SOL    HW1 3167   0.417   8.425   3.994 -2.7004  3.4400 -0.7023
  391SOL    HW2 3168   0.365   8.322   3.896  0.4184  1.0696 -0.0202
  392SOL     OW 3169   3.232   2.861   3.746  0.2217  0.6031  0.2490
  392SOL    HW1 3170   3.156   2.881   3.691 -1.1099 -2.4188  0.8092
  392SOL    HW2 3171   3.194   2.833   3.830  1.9309 -1.0087  0.5417
  393SOL     OW 3172   4.954   8.492   4.774  0.0339 -0.7250  0.6711
  393SOL    HW1 3173   5.011   8.522   4.703 -0.8671  1.0152  0.6206
  393SOL    HW2 3174   4.866   8.503   4.739 -0.4651  0.8547  2.2634
  394SOL     OW 3175   4.277   7.448   4.189 -0.0655  0.1932 -0.0967
  394SOL    HW1 3176   4.270   7.537   4.155  1.9032  0.3641 -0.1518
  394SOL    HW2 3177   4.273   7.459   4.284 -0.9735  0.1978 -0.1258
  395SOL     OW 3178   5.084   1.505   6.986 -0.2767 -0.0323 -0.4033
  395SOL    HW1 3179   5.159   1.559   6.961 -0.9437  2.0395  1.6913
  395SOL    HW2 3180   5.101   1.420   6.945  2.4424  0.8052 -1.2343
  396SOL     OW 3181   4.419   4.881   4.161  0.3175 -0.4397 -0.1759
  396SOL    HW1 3182   4.437   4.904   4.070  1.4498 -0.1259  0.1187
  396SOL    HW2 3183   4.362   4.804   4.156 -0.6286  0.3075 -1.1480
  397SOL     OW 3184   8.674   8.322   7.823  0.4602 -0.0278 -0.3915
  397SOL    HW1 3185   8.648   8.328   7.915  1.5049 -0.6063 -0.0415
  397SOL    HW2 3186   8.643   8.235   7.795  0.4826 -0.0079 -0.4797
  398SOL     OW 3187   7.704   4.376   5.262  0.1802 -0.3280 -0.1249
  398SOL    HW1 3188   7.694   4.396   5.355 -0.6709 -2.1257  0.2173
  398SOL    HW2 3189   7.633   4.424   5.219 -1.2992 -1.7892  0.5613
  399SOL     OW 3190   1.936   0.266   0.773 -0.3386 -0.1514  0.0328
  399SOL    HW1 3191   1.899   0.187   0.734  0.4552  0.4483 -2.0239
  399SOL    HW2 3192   2.023   0.240   0.803 -0.2617 -0.1725 -0.2087
  400SOL     OW 3193   1.265   0.710   6.992 -0.0387 -0.5530  0.3393
  400SOL    HW1 3194   1.289   0.787   7.045  0.0147  0.0408 -0.5187
  400SOL    HW2 3195   1.217   0.747   6.918  1.8490 -1.1097 -1.2375
  401SOL     OW 3196   5.216   7.920   1.667  0.1513  0.2774  0.2061
  401SOL    HW1 3197   5.294   7.963   1.702 -0.1623  0.4615  0.6923
  401SOL    HW2 3198   5.176   7.878   1.743 -1.4199  2.0261  0.4153
  402SOL     OW 3199   1.494   3.303   5.810  0.1611 -0.3511 -0.9256
  402SOL    HW1 3200   1.422   3.262   5.857 -0.7414  2.7637  0.6189
  402SOL    HW2 3201   1.452   3.348   5.736  0.6784  0.4365 -0.7491
  403SOL     OW 3202   0.445   7.182   7.871  0.5365 -0.3594  0.2413
  403SOL    HW1 3203   0.418   7.261   7.823  1.5941 -0.0834  0.0769
  403SOL    HW2 3204   0.406   7.110   7.821 -2.1617  0.0942  1.5308
  404SOL     OW 3205   8.746   3.514   2.494 -0.1286 -0.5892  1.0111
  404SOL    HW1 3206   8.662   3.470   2.505 -0.6441 -0.2913 -1.2191
  404SOL    HW2 3207   8.727   3.606   2.511 -0.0807 -0.6174  1.2218
  405SOL     OW 3208   1.450   8.703   3.724 -0.1901  1.1713 -0.2694
  405SOL    HW1 3209   1.430   8.611   3.739  2.1353  0.6174 -0.1917
  405SOL    HW2 3210   1.407   8.724   3.642  0.5592 -0.4798 -1.1296
  406SOL     OW 3211   6.000   8.236   6.217 -0.5342  0.6735 -0.4000
  406SOL    HW1 3212   6.062   8.299   6.179  1.2277 -0.1715  0.9093
  406SOL    HW2 3213   5.959   8.283   6.289  0.3884  0.5542  0.2348
  407SOL     OW 3214   8.244   2.498   8.767  0.1598 -0.1112 -0.5706
  407SOL    HW1 3215   8.291   2.575   8.734 -1.0899  1.9328  1.9805
  407SOL    HW2 3216   8.286   2.479   8.851 -1.8562  0.1522  0.5466
  408SOL     OW 3217   4.498   1.130   0.630 -0.2001  0.3187 -0.1193
  408SOL    HW1 3218   4.510   1.222   0.606 -3.8430  0.6168 -1.4055
  408SOL    HW2 3219   4.481   1.086   0.546  1.0172 -1.4894  0.5278
  409SOL     OW 3220   1.200   6.612   5.949 -0.6030  0.4481 -0.0913
  409SOL    HW1 3221   1.252   6.544   5.992 -0.3542  0.8944  0.3245
  409SOL    HW2 3222   1.116   6.570   5.931 -0.0620 -0.3243 -0.9009
  410SOL     OW 3223   0.001   5.336   3.433  0.1028  0.5112  0.2925
  410SOL    HW1 3224   0.037   5.247   3.427  2.5707  1.3088  2.0154
  410SOL    HW2 3225   0.013   5.372   3.345 -1.6047 -1.0172 -0.6444
  411SOL     OW 3226   7.460   7.684   4.582 -0.2881 -0.1179  0.1092
  411SOL    HW1 3227   7.524   7.661   4.650 -0.5989  0.2795  0.5447
  411SOL    HW2 3228   7.487   7.633   4.506 -0.6907 -1.5730  0.8959
  412SOL     OW 3229   4.058   4.879   6.642  0.0035 -0.1099  0.0402
  412SOL    HW1 3230   3.970   4.906   6.613 -0.2694 -0.2819  0.6728
  412SOL    HW2 3231   4.079   4.803   6.589 -1.5742 -2.0251  1.9504
  413SOL     OW 3232   8.641   0.013   8.605 -0.3989  0.6673  0.5269
  413SOL    HW1 3233   8.650  -0.081   8.595  2.0681  0.7301  1.5625
  413SOL    HW2 3234   8.592   0.041   8.527 -2.7664 -1.6033  1.0567
  414SOL     OW 3235   5.183   1.511   1.633 -0.2463 -0.0468  0.5273
  414SOL    HW1 3236   5.088   1.520   1.645 -1.1207 -2.1251 -3.0339
  414SOL    HW2 3237   5.209   1.447   1.699 -2.1039 -1.9915 -0.4874
  415SOL     OW 3238   3.889   5.153   0.488 -0.5073  0.4720  0.0317
  415SOL    HW1 3239   3.846   5.201   0.417  0.8591 -0.0027 -1.1467
  415SOL    HW2 3240   3.939   5.084   0.445 -0.5154 -0.5270  1.5396
  416SOL     OW 3241   6.174   3.665   2.445 -0.3492  0.0034  0.1316
  416SOL    HW1 3242   6.255   3.617   2.462 -0.3262 -0.1577 -0.4114
  416SOL    HW2 3243   6.134   3.620   2.371  0.3028  1.5878 -1.2365
  417SOL     OW 3244   7.568   1.439   6.174 -0.1634 -0.5646  0.4469
  417SOL    HW1 3245   7.511   1.494   6.229 -0.7220  1.2472 -1.7601
  417SOL    HW2 3246   7.645   1.494   6.157  0.4560 -1.4812  0.2577
  418SOL     OW 3247   4.221   8.482   0.563 -0.2111  0.2545 -0.0824
  418SOL    HW1 3248   4.257   8.493   0.651  0.8960  0.8899 -0.5864
  418SOL    HW2 3249   4.292   8.511   0.505  0.9794 -4.4977 -1.4573
  419SOL     OW 3250   1.953   5.299   3.197  0.3067  0.3663 -0.2886
  419SOL    HW1 3251   1.943   5.392   3.220 -0.3864  0.4890 -1.0297
  419SOL    HW2 3252   1.990   5.300   3.109 -0.9546 -0.0230 -0.8518
  420SOL     OW 3253   3.356   4.378   4.054  0.3395  0.2733  0.0205
  420SOL    HW1 3254   3.263   4.399   4.063 -0.0049 -1.8174  2.4805
  420SOL    HW2 3255   3.401   4.446   4.106  0.1117  0.6699 -0.2937
  421SOL     OW 3256   1.344   6.865   3.578  0.0636  0.3509  0.1045
  421SOL    HW1 3257   1.431   6.884   3.614  0.2734 -0.3154 -0.0302
  421SOL    HW2 3258   1.306   6.803   3.641 -0.0410  0.1099 -0.1945
  422SOL     OW 3259   6.495   2.931   4.556  0.2461 -0.4031 -0.6511
  422SOL    HW1 3260   6.518   3.021   4.531  2.5214 -0.8428 -0.3192
  422SOL    HW2 3261   6.552   2.876   4.502 -0.8362 -1.6484 -0.5609
  423SOL     OW 3262   4.707   0.475   8.752  0.4756 -0.6684  0.4198
  423SOL    HW1 3263   4.760   0.548   8.783 -0.0839 -0.9858  2.2473
  423SOL    HW2 3264   4.653   0.512   8.682  2.9730 -0.3296 -1.4543
  424SOL     OW 3265   7.070   5.114   0.107 -0.5307 -0.6169  0.3833
  424SOL    HW1 3266   7.011   5.171   0.157  0.0487 -1.1717  1.7586
  424SOL    HW2 3267   7.100   5.168   0.035 -0.2597  0.7389  1.4615
  425SOL     OW 3268   8.396   3.581   0.282 -0.7783  0.4011 -0.1598
  425SOL    HW1 3269   8.335   3.624   0.342  1.0000  0.7977  1.5012
  425SOL    HW2 3270   8.363   3.492   0.273 -2.5549  1.0957 -0.7633
  426SOL     OW 3271   2.393   6.426   7.079  0.3433  1.1568  0.6457
  426SOL    HW1 3272   2.450   6.503   7.079 -1.5788  2.7033 -1.0879
  426SOL    HW2 3273   2.329   6.444   7.148  0.7272  0.3551  1.2364
  427SOL     OW 3274   4.323   0.679   4.030 -0.2505  0.4717 -0.0776
  427SOL    HW1 3275   4.309   0.587   4.010 -0.0522  0.1587  1.1500
  427SOL    HW2 3276   4.396   0.706   3.974  0.3862 -0.3982  0.3265
  428SOL     OW 3277   1.508   0.961   4.564  0.4123 -0.1418 -0.1499
  428SOL    HW1 3278   1.575   1.028   4.582  0.6600  0.0471 -1.6506
  428SOL    HW2 3279   1.526   0.892   4.627  2.9687 -0.7327 -1.3852
  429SOL     OW 3280   7.383   2.647   1.789  0.0579  0.4125 -0.2366
  429SOL    HW1 3281   7.477   2.656   1.774 -0.1127  0.2573 -1.4934
  429SOL    HW2 3282   7.342   2.694   1.717 -0.8412  0.6741  0.4219
  430SOL     OW 3283   8.781   1.187   8.117  0.0029  0.5048 -0.1350
  430SOL    HW1 3284   8.721   1.118   8.145  0.6275 -0.1675 -0.3980
  430SOL    HW2 3285   8.868   1.147   8.123  0.2327  0.5769 -2.2058
  431SOL     OW 3286   8.113   3.102   3.907  0.3272 -0.4687  0.2469
  431SOL    HW1 3287   8.108   3.047   3.828  0.4613  0.8679 -0.7249
  431SOL    HW2 3288   8.031   3.083   3.953  0.6144 -1.8890  0.2447
  432SOL     OW 3289   6.549   6.436   7.784 -0.2047 -0.4531  0.4244
  432SOL    HW1 3290   6.480   6.390   7.737 -0.1657 -1.0538  0.9422
  432SOL    HW2 3291   6.590   6.369   7.839  1.9143 -0.4872 -1.1025
  433SOL     OW 3292   4.360   7.102   7.197 -0.5498  0.3027  0.4758
  433SOL    HW1 3293   4.288   7.042   7.214 -1.4926  0.7330 -1.6555
  433SOL    HW2 3294   4.345   7.176   7.256 -1.0406 -0.2537  1.0514
  434SOL     OW 3295   2.714   0.620   2.321  0.6002  0.1682 -0.4540
  434SOL    HW1 3296   2.792   0.621   2.265 -0.8398  0.6314 -2.5562
  434SOL    HW2 3297   2.643   0.593   2.263 -0.6519 -1.4539  1.6847
  435SOL     OW 3298   1.331   4.306   0.390 -0.4725  0.1015 -0.1492
  435SOL    HW1 3299   1.259   4.303   0.326 -1.8431  1.5808  1.2429
  435SOL    HW2 3300   1.327   4.222   0.434 -0.9962 -0.0430 -0.4604
  436SOL     OW 3301   6.352   3.931   2.183  0.1232  0.7109 -0.0536
  436SOL    HW1 3302   6.287   3.958   2.249 -0.8078  1.0457 -1.0665
  436SOL    HW2 3303   6.299   3.910   2.106  1.0953 -0.9024 -0.3038
  437SOL     OW 3304   8.308   4.570   4.382  0.2493  0.0214  0.1669
  437SOL    HW1 3305   8.287   4.623   4.459  3.1640  1.3181  0.1925
  437SOL    HW2 3306   8.278   4.482   4.405 -1.1994  0.8636  1.7229
  438SOL     OW 3307   7.721   7.037   8.100  0.3251 -0.1184 -0.8090
  438SOL    HW1 3308   7.777   7.103   8.140  2.0387 -0.2347 -2.8727
  438SOL    HW2 3309   7.766   6.954   8.117  0.0603 -0.3655 -1.3082
  439SOL     OW 3310   1.931   3.482   0.320  0.3456  0.2610 -0.2093
  439SOL    HW1 3311   1.877   3.425   0.374  1.9893  0.9749  2.3601
  439SOL    HW2 3312   1.984   3.423   0.267 -0.7422 -0.4663 -0.5204
  440SOL     OW 3313   5.804   3.959   3.728 -0.1280  0.8312 -0.2770
  440SOL    HW1 3314   5.861   3.951   3.651 -0.2677  0.0951 -0.3180
  440SOL    HW2 3315   5.826   3.882   3.781  1.0794  2.1096  1.1949
  441SOL     OW 3316   2.951   3.043   7.710  0.5323  0.5435  0.0217
  441SOL    HW1 3317   2.868   2.998   7.725  1.2553 -0.5386  0.8795
  441SOL    HW2 3318   2.927   3.119   7.657 -1.1327  0.7449  0.9790
  442SOL     OW 3319   6.997   5.185   2.906  0.0956  0.1687 -0.0285
  442SOL    HW1 3320   6.987   5.155   2.996 -0.9094 -1.3647 -0.6045
  442SOL    HW2 3321   7.045   5.268   2.913 -1.2893  0.8751  2.0069
  443SOL     OW 3322   6.714   1.084   5.144  0.0438  0.3214 -0.1023
  443SOL    HW1 3323   6.773   1.125   5.207  1.5667 -0.0978 -1.2030
  443SOL    HW2 3324   6.712   0.992   5.170  0.7735  0.1237 -0.7174
  444SOL     OW 3325   0.093   5.204   1.579 -0.0187  0.0374 -0.1711
  444SOL    HW1 3326   0.081   5.298   1.564  0.8231  0.3250  0.8268
  444SOL    HW2 3327   0.147   5.174   1.505  0.2824  0.4804 -0.1320
  445SOL     OW 3328   6.263   8.322   2.075  0.0672 -0.1326  0.4081
  445SOL    HW1 3329   6.312   8.307   2.156  1.3128  0.5488 -0.1858
  445SOL    HW2 3330   6.240   8.234   2.044  0.8609 -0.4680  0.7423
  446SOL     OW 3331   1.200   4.779   1.954 -0.6955  0.3631  0.4634
  446SOL    HW1 3332   1.114   4.739   1.936 -0.2021 -1.3158  1.6304
  446SOL    HW2 3333   1.257   4.705   1.974  1.0312  1.4587 -0.1687
  447SOL     OW 3334   8.814   4.741   3.327 -0.7092  0.4281 -0.2502
  447SOL    HW1 3335   8.909   4.731   3.322 -0.6857  0.3015  0.3742
  447SOL    HW2 3336   8.801   4.826   3.371 -0.8885  0.4756 -0.3908
  448SOL     OW 3337   1.755   5.693   5.161  0.0094 -0.3213  0.4415
  448SOL    HW1 3338   1.665   5.724   5.165  0.3222  0.6733  0.0747
  448SOL    HW2 3339   1.773   5.660   5.249 -1.1771 -1.9289  0.1299
  449SOL     OW 3340   7.938   5.919   6.134  0.1688  0.3013  0.0018
  449SOL    HW1 3341   7.925   6.006   6.097  2.0638  0.5965 -0.0661
  449SOL    HW2 3342   7.871   5.865   6.092  2.0118  0.6539 -3.8249
  450SOL     OW 3343   0.158   5.780   0.394 -0.0650  0.6420 -0.2325
  450SOL    HW1 3344   0.173   5.874   0.389 -2.0666  0.9967 -0.7040
  450SOL    HW2 3345   0.232   5.741   0.347  0.2577  2.0440 -0.9346
  451SOL     OW 3346   7.345   6.573   5.172 -0.2476  0.4306 -0.8189
  451SOL    HW1 3347   7.371   6.527   5.092  1.8087  1.1561 -0.6208
  451SOL    HW2 3348   7.379   6.662   5.161 -0.8283  0.8234  0.4180
  452SOL     OW 3349   7.121   5.260   7.018  0.4063 -1.1192 -0.5795
  452SOL    HW1 3350   7.136   5.229   6.929 -0.7619 -1.5539 -0.6319
  452SOL    HW2 3351   7.117   5.355   7.011  1.9884 -1.0333 -0.7207
  453SOL     OW 3352   2.818   6.995   0.782 -0.2663 -0.1420 -0.1569
  453SOL    HW1 3353   2.901   7.044   0.784  1.4423 -2.8378  0.2767
  453SOL    HW2 3354   2.755   7.056   0.743  1.1131  3.1405  2.2429
  454SOL     OW 3355   0.683   8.326   3.303 -0.3584 -0.4594  0.2491
  454SOL    HW1 3356   0.622   8.352   3.235 -0.3240  0.2694  0.4918
  454SOL    HW2 3357   0.694   8.404   3.358  2.6161  0.2392 -1.1478
  455SOL     OW 3358   0.751   6.103   6.768 -0.3320  0.6014 -0.2483
  455SOL    HW1 3359   0.724   6.012   6.764 -1.0654  0.7952  0.1867
  455SOL    HW2 3360   0.819   6.105   6.836 -0.5015  0.4296 -0.0746
  456SOL     OW 3361   3.770   8.467   4.929  0.1118 -0.1526 -0.5706
  456SOL    HW1 3362   3.825   8.466   4.850 -1.3848 -1.5563 -1.6592
  456SOL    HW2 3363   3.829   8.441   5.000  1.2193 -0.0021 -1.4187
  457SOL     OW 3364   6.839   1.112   8.380 -0.8219  0.2346  0.2025
  457SOL    HW1 3365   6.837   1.148   8.292  0.1803 -1.3065 -0.4904
  457SOL    HW2 3366   6.874   1.183   8.434  0.8887  0.4292 -1.0644
  458SOL     OW 3367   8.788   6.497   5.741 -0.6148 -0.0518 -0.1404
  458SOL    HW1 3368   8.883   6.497   5.747 -0.5361 -0.1759 -1.1191
  458SOL    HW2 3369   8.759   6.560   5.807  0.0983 -0.5462  0.6660
  459SOL     OW 3370   5.439   4.168   5.074 -0.1394  0.0885  0.0374
  459SOL    HW1 3371   5.532   4.187   5.066  0.4810 -2.8688 -1.1013
  459SOL    HW2 3372   5.398   4.218   5.004  0.9686 -0.5552 -1.0984
  460SOL     OW 3373   0.229   0.612   6.168 -0.0184 -0.2341 -0.1088
  460SOL    HW1 3374   0.174   0.618   6.090  0.1866  1.1629 -0.1807
  460SOL    HW2 3375   0.179   0.559   6.229 -1.1238  0.3986 -0.4429
  461SOL     OW 3376   6.616   2.796   4.814  0.1950 -0.1409 -0.2933
  461SOL    HW1 3377   6.683   2.731   4.792 -0.5659 -1.1793  0.3992
  461SOL    HW2 3378   6.588   2.831   4.729  1.2575 -0.0431 -0.6149
  462SOL     OW 3379   3.726   2.333   8.535 -0.2026  0.2634 -0.2858
  462SOL    HW1 3380   3.762   2.394   8.471 -0.8013  1.3443  0.3918
  462SOL    HW2 3381   3.659   2.383   8.582 -1.2870 -1.1559 -0.2601
  463SOL     OW 3382   6.902   6.785   0.289  0.1903 -0.6579 -0.0031
  463SOL    HW1 3383   6.830   6.771   0.350  1.5012 -0.0613  1.7448
  463SOL    HW2 3384   6.974   6.817   0.343  0.8403  1.7620 -2.1406
  464SOL     OW 3385   3.975   3.550   3.568 -0.2009 -0.0992 -0.2288
  464SOL    HW1 3386   3.928   3.494   3.631 -0.6212 -0.0824 -0.5220
  464SOL    HW2 3387   3.920   3.550   3.490 -0.2577  0.7913 -0.2070
  465SOL     OW 3388   2.703   8.121   0.665  0.7757 -0.4335  0.0727
  465SOL    HW1 3389   2.661   8.144   0.748 -2.3503  0.0611 -1.4871
  465SOL    HW2 3390   2.666   8.036   0.641  0.8882 -0.1404 -1.2466
  466SOL     OW 3391   0.542   7.060   1.225  0.7313  0.4057  0.0482
  466SOL    HW1 3392   0.580   7.060   1.137  0.1990  0.9581 -0.1868
  466SOL    HW2 3393   0.573   7.141   1.264  0.6278  0.3594  0.2274
  467SOL     OW 3394   1.698   4.762   2.434  0.1614 -0.4937 -0.4203
  467SOL    HW1 3395   1.648   4.692   2.474  1.1899 -0.4225  1.0731
  467SOL    HW2 3396   1.767   4.717   2.385  1.5401 -0.5673  1.5007
  468SOL     OW 3397   6.080   8.675   8.000 -0.5230 -0.2040  0.1425
  468SOL    HW1 3398   6.153   8.733   7.977  0.5770 -1.7225 -0.3382
  468SOL    HW2 3399   6.019   8.732   8.047 -0.4343  1.8185 -1.9816
  469SOL     OW 3400   3.518   7.877   5.318  0.4153 -0.5704  0.2984
  469SOL    HW1 3401   3.438   7.878   5.266  0.8402  0.0764 -0.3649
  469SOL    HW2 3402   3.537   7.970   5.334  1.1208 -0.7113  0.3024
  470SOL     OW 3403   3.100   8.478   3.804 -0.0423  0.3794  0.5879
  470SOL    HW1 3404   3.186   8.461   3.767 -0.1930  0.2597  0.2869
  470SOL    HW2 3405   3.105   8.443   3.893  0.4316  0.9833  0.8062
  471SOL     OW 3406   6.989   3.168   2.849  0.4447  0.0070  0.0995
  471SOL    HW1 3407   7.082   3.144   2.848 -0.0693 -2.2582  0.5626
  471SOL    HW2 3408   6.962   3.162   2.757  1.0923  2.4754 -0.3357
  472SOL     OW 3409   0.750   4.026   4.042 -0.5502  0.2693  0.1613
  472SOL    HW1 3410   0.700   4.094   4.087 -0.5989 -0.6712  1.5729
  472SOL    HW2 3411   0.827   4.013   4.096  0.3703  0.4320 -1.0527
  473SOL     OW 3412   3.925   8.461   5.165  0.6057  0.3964 -0.2287
  473SOL    HW1 3413   3.893   8.547   5.192 -1.5065 -0.8683  1.6278
  473SOL    HW2 3414   3.962   8.423   5.245 -1.7226 -1.7162 -0.0403
  474SOL     OW 3415   0.286   4.857   6.095  0.3136 -0.1758  0.3126
  474SOL    HW1 3416   0.317   4.946   6.115  0.0590  0.1779 -0.7707
  474SOL    HW2 3417   0.288   4.853   5.999 -4.3318  0.4443 -0.0674
  475SOL     OW 3418   6.415   4.003   0.415 -0.6448  0.4995 -0.1856
  475SOL    HW1 3419   6.359   3.926   0.417 -0.3700  0.2876  1.7447
  475SOL    HW2 3420   6.384   4.056   0.489  0.0034  1.6205 -0.6980
  476SOL     OW 3421   5.880   6.578   0.157 -0.3376  0.5154 -0.0513
  476SOL    HW1 3422   5.954   6.625   0.195  0.0874 -1.0350  1.1142
  476SOL    HW2 3423   5.820   6.563   0.230 -0.1263 -1.3328 -0.1976
  477SOL     OW 3424   8.457   5.872   5.489 -0.1516 -0.1223  0.0334
  477SOL    HW1 3425   8.400   5.945   5.465  1.5410  0.4499 -2.7912
  477SOL    HW2 3426   8.531   5.914   5.534 -0.3623 -0.4455  0.6967
  478SOL     OW 3427   0.357   2.550   3.015 -0.0439  0.4124 -0.7164
  478SOL    HW1 3428   0.294   2.503   3.069 -0.6371  2.1668  0.1736
  478SOL    HW2 3429   0.308   2.623   2.979  0.9428  0.5667 -1.8100
  479SOL     OW 3430   4.654   4.024   8.747 -0.3007  0.5290 -0.2485
  479SOL    HW1 3431   4.561   4.022   8.725 -0.2623  1.5784 -0.5586
  479SOL    HW2 3432   4.656   4.046   8.840 -0.3482  1.7104 -0.5150
  480SOL     OW 3433   5.777   0.003   7.404  0.3328 -0.4758  0.2660
  480SOL    HW1 3434   5.725  -0.073   7.380  1.4103 -0.8863 -0.8889
  480SOL    HW2 3435   5.861  -0.010   7.359  0.7188  1.1356  0.4527
  481SOL     OW 3436   5.491   6.028   0.257  0.1083 -0.1200 -0.1103
  481SOL    HW1 3437   5.578   5.994   0.234  0.3554  0.1133  0.4567
  481SOL    HW2 3438   5.502   6.123   0.258  0.6543 -0.1199  2.8667
  482SOL     OW 3439   6.151   6.661   0.971  0.0222  0.1660  0.0182
  482SOL    HW1 3440   6.091   6.649   1.044  1.1224 -2.3144  0.5942
  482SOL    HW2 3441   6.103   6.630   0.894  0.3598 -1.3295  0.3950
  483SOL     OW 3442   2.231   6.090   5.985 -0.6285  0.3070 -0.0260
  483SOL    HW1 3443   2.199   6.047   5.906 -0.3664 -0.6358  0.3604
  483SOL    HW2 3444   2.152   6.102   6.039 -0.7884  0.8400 -0.3806
  484SOL     OW 3445   3.234   0.782   1.838  0.3897 -0.0511 -1.0774
  484SOL    HW1 3446   3.230   0.877   1.849  0.5882  0.0493 -1.8109
  484SOL    HW2 3447   3.282   0.751   1.914  0.1990  0.4220 -0.7603
  485SOL     OW 3448   7.029   1.232   6.557 -0.0495 -0.0618  0.1362
  485SOL    HW1 3449   6.965   1.290   6.516  0.6506  0.1245 -0.7495
  485SOL    HW2 3450   6.983   1.148   6.567 -0.8642  0.4574  0.8265
  486SOL     OW 3451   7.483   5.099   7.410 -1.0450 -0.0251 -0.3734
  486SOL    HW1 3452   7.553   5.141   7.459 -1.6881  0.8374 -0.1660
  486SOL    HW2 3453   7.524   5.071   7.328 -0.4231  0.3044 -0.1796
  487SOL     OW 3454   1.621   4.941   2.231 -0.2010 -0.9370  0.5281
  487SOL    HW1 3455   1.623   4.897   2.146 -0.4175 -1.4329  0.7786
  487SOL    HW2 3456   1.661   4.879   2.291  0.9898 -0.1315  0.5884
  488SOL     OW 3457   2.194   8.319   0.475 -0.5546  0.4157  0.3138
  488SOL    HW1 3458   2.210   8.312   0.569 -0.0668  1.5476  0.3298
  488SOL    HW2 3459   2.200   8.412   0.456  2.1829  0.0260 -1.2867
  489SOL     OW 3460   6.099   4.394   0.072 -0.2211  0.7238  0.0734
  489SOL    HW1 3461   6.092   4.301   0.051 -0.5661 -0.0770  3.3005
  489SOL    HW2 3462   6.074   4.438  -0.009  3.9246 -1.7996 -3.0136
  490SOL     OW 3463   2.662   3.576   7.940  0.0127 -0.1198 -0.0261
  490SOL    HW1 3464   2.658   3.486   7.973  0.8844  0.3395  1.4558
  490SOL    HW2 3465   2.709   3.569   7.857  1.3808 -0.8972  0.7637
  491SOL     OW 3466   4.388   3.380   6.307 -0.4792  0.2966  0.1367
  491SOL    HW1 3467   4.443   3.334   6.244  0.4255  0.0008  1.1283
  491SOL    HW2 3468   4.387   3.471   6.276  0.2610  0.2247 -0.1020
  492SOL     OW 3469   4.552   6.452   4.717 -0.3875  0.0367  0.3259
  492SOL    HW1 3470   4.538   6.384   4.783 -1.7348  0.5159  0.5619
  492SOL    HW2 3471   4.593   6.406   4.644 -0.2427 -0.7989  0.9152
  493SOL     OW 3472   4.876   4.182   8.410 -0.6338 -0.5472  0.4709
  493SOL    HW1 3473   4.831   4.267   8.409  1.0551  0.4013  1.2846
  493SOL    HW2 3474   4.905   4.170   8.319  1.6016  1.2053  0.8540
  494SOL     OW 3475   7.842   8.374   0.961  0.4027  0.3085  0.1336
  494SOL    HW1 3476   7.888   8.432   1.021  1.5831 -0.7762  0.3346
  494SOL    HW2 3477   7.825   8.427   0.883  2.3723  0.6672 -0.0989
  495SOL     OW 3478   0.899   5.345   4.379 -0.0590 -0.1122  0.2668
  495SOL    HW1 3479   0.986   5.328   4.342  0.5266  0.0476  1.5204
  495SOL    HW2 3480   0.838   5.307   4.315  1.0029 -2.3534  0.4688
  496SOL     OW 3481   6.124   2.108   0.854 -0.3147 -0.4595  0.0227
  496SOL    HW1 3482   6.073   2.085   0.932 -0.4012  1.7832  0.7099
  496SOL    HW2 3483   6.099   2.199   0.836 -0.1550 -0.8647 -2.5457
  497SOL     OW 3484   7.981   5.285   3.282  0.0221 -0.4205  0.0291
  497SOL    HW1 3485   7.887   5.298   3.286 -0.1634 -0.9790 -1.5083
  497SOL    HW2 3486   8.012   5.355   3.225 -0.0023 -2.2156 -2.3668
  498SOL     OW 3487   4.844   6.026   2.115  0.0718 -0.0614  0.1827
  498SOL    HW1 3488   4.811   5.942   2.146  0.5207  0.2488  1.5408
  498SOL    HW2 3489   4.920   6.004   2.062  0.3827 -0.4938  0.7975
  499SOL     OW 3490   5.789   0.837   6.691  0.4745 -0.5494 -0.4736
  499SOL    HW1 3491   5.800   0.826   6.786 -0.5719  0.3877 -0.2144
  499SOL    HW2 3492   5.853   0.778   6.652  0.4991 -1.4168  0.8161
  500SOL     OW 3493   2.920   6.644   6.705 -0.0481  0.2688 -0.1250
  500SOL    HW1 3494   2.873   6.664   6.786 -0.9465  0.9691 -0.7933
  500SOL    HW2 3495   3.006   6.615   6.734 -0.6333 -0.3239  1.1155
  501SOL     OW 3496   3.656   1.579   3.190 -0.2978  0.2157 -0.2185
  501SOL    HW1 3497   3.617   1.553   3.107  1.5650 -0.6259 -0.8690
  501SOL    HW2 3498   3.694   1.499   3.225 -2.6360  0.0817  2.4474
  502SOL     OW 3499   1.967   7.029   3.011 -1.2471  0.1320 -0.1338
  502SOL    HW1 3500   2.028   7.083   3.062 -0.5178 -0.1770 -0.6432
  502SOL    HW2 3501   1.954   6.951   3.063 -0.8517  0.0086 -0.2149
  503SOL     OW 3502   4.378   1.356   0.159 -0.3684  0.0343  0.5894
  503SOL    HW1 3503   4.389   1.441   0.202  1.6412 -0.1958  0.5979
  503SOL    HW2 3504   4.290   1.359   0.122 -0.2241  2.2304  0.3392
  504SOL     OW 3505   7.312   7.897   0.387  0.2161 -0.3776 -0.1495
  504SOL    HW1 3506   7.282   7.806   0.392 -1.2771  0.0784 -0.3475
  504SOL    HW2 3507   7.239   7.948   0.420  0.9671  0.7869 -0.2200
  505SOL     OW 3508   3.717   1.548   4.879  0.2074  0.2098 -0.2985
  505SOL    HW1 3509   3.792   1.577   4.931  0.8670 -2.1780  0.1919
  505SOL    HW2 3510   3.647   1.533   4.943 -0.7124  2.2253 -0.7329
  506SOL     OW 3511   8.558   6.105   2.359 -0.4123  0.2365 -0.3033
  506SOL    HW1 3512   8.520   6.103   2.447  0.4045  0.0026  0.0564
  506SOL    HW2 3513   8.512   6.036   2.312 -0.2845 -0.1972  0.1904
  507SOL     OW 3514   7.663   0.417   3.291  0.0839  0.4619 -0.4010
  507SOL    HW1 3515   7.637   0.349   3.352 -0.2307  1.6641  0.8572
  507SOL    HW2 3516   7.671   0.496   3.344 -1.5838  1.9002 -2.1238
  508SOL     OW 3517   5.248   3.853   0.649 -0.2249  0.6725 -0.0382
  508SOL    HW1 3518   5.329   3.846   0.700  1.5577  0.7565 -2.6778
  508SOL    HW2 3519   5.253   3.940   0.609 -1.8219  0.8094  0.0122
  509SOL     OW 3520   1.191   4.584   4.756  0.6186  0.0893  0.0956
  509SOL    HW1 3521   1.168   4.549   4.842  0.5198  3.2349  1.4823
  509SOL    HW2 3522   1.286   4.599   4.761  0.8589 -0.9199 -0.8853
  510SOL     OW 3523   0.838   7.007   7.476 -0.0675 -0.2395  0.0662
  510SOL    HW1 3524   0.752   6.981   7.507 -0.4866  0.2959 -0.6089
  510SOL    HW2 3525   0.826   7.097   7.445  0.5122 -0.4709 -0.8731
  511SOL     OW 3526   1.070   1.276   7.495  0.4630  0.3691 -0.2911
  511SOL    HW1 3527   1.054   1.330   7.573  0.8493 -1.3105  1.0149
  511SOL    HW2 3528   1.108   1.195   7.530 -4.1829 -2.7373 -1.5557
  512SOL     OW 3529   1.562   5.466   8.554 -0.0354 -0.2613  0.2636
  512SOL    HW1 3530   1.557   5.532   8.484  0.2879  0.2086  0.6757
  512SOL    HW2 3531   1.649   5.477   8.592 -0.3947 -0.1376  1.0899
  513SOL     OW 3532   4.297   0.506   8.517 -0.0413  0.0319 -0.3562
  513SOL    HW1 3533   4.232   0.553   8.465 -1.8290 -1.4160  0.4345
  513SOL    HW2 3534   4.260   0.504   8.605  0.0930 -2.4789 -0.2731
  514SOL     OW 3535   8.334   6.663   1.244  0.2999  0.1516  0.5304
  514SOL    HW1 3536   8.380   6.683   1.325  1.1692  1.1423 -0.1854
  514SOL    HW2 3537   8.296   6.746   1.217 -0.4540 -0.2942  0.2032
  515SOL     OW 3538   0.427   0.849   1.564  0.6673 -0.1785  0.2104
  515SOL    HW1 3539   0.521   0.834   1.560  0.7631  0.4017  0.2399
  515SOL    HW2 3540   0.414   0.900   1.644  0.0081 -2.5630  1.7323
  516SOL     OW 3541   8.478   5.803   4.053  0.6157 -0.1182  0.2426
  516SOL    HW1 3542   8.569   5.787   4.077  0.9774  0.1695 -0.8862
  516SOL    HW2 3543   8.428   5.740   4.105  1.4627 -0.3509  0.7941
  517SOL     OW 3544   3.493   2.807   8.865  0.1265  0.4344 -0.2753
  517SOL    HW1 3545   3.437   2.731   8.884  1.0988 -0.2385 -0.0727
  517SOL    HW2 3546   3.431   2.875   8.836 -0.7264 -0.5110 -0.7311
  518SOL     OW 3547   8.495   2.192   6.084  0.1833 -0.4292  0.2469
  518SOL    HW1 3548   8.565   2.138   6.121 -0.5057 -1.0833  0.6283
  518SOL    HW2 3549   8.540   2.266   6.044  1.1549 -1.3554 -0.4077
  519SOL     OW 3550   8.426   6.018   7.681 -0.6900 -0.1063  0.6380
  519SOL    HW1 3551   8.456   5.952   7.744 -0.2281 -3.4544 -2.6649
  519SOL    HW2 3552   8.333   6.028   7.700 -0.7406 -1.6372  1.4061
  520SOL     OW 3553   0.485   1.464   1.991  0.8621 -0.0403 -0.0580
  520SOL    HW1 3554   0.430   1.403   1.942  0.6230 -0.3926  0.6445
  520SOL    HW2 3555   0.455   1.457   2.081  1.7380  0.1150  0.2589
  521SOL     OW 3556   1.358   1.324   1.909 -0.5282  0.1836  0.2652
  521SOL    HW1 3557   1.350   1.260   1.980 -0.2835  0.1060  0.2252
  521SOL    HW2 3558   1.298   1.293   1.841  0.6409 -0.8206 -0.3553
  522SOL     OW 3559   5.460   8.839   1.632  0.3459 -0.0165  0.3760
  522SOL    HW1 3560   5.473   8.775   1.703  2.4203  0.1214  0.1559
  522SOL    HW2 3561   5.368   8.828   1.608  0.4537 -2.4757  0.7924
  523SOL     OW 3562   4.303   0.495   2.517 -0.0656  0.3262  0.0312
  523SOL    HW1 3563   4.375   0.492   2.579 -0.1128  0.1157  0.0773
  523SOL    HW2 3564   4.237   0.436   2.554 -0.0650  0.1460 -0.2491
  524SOL     OW 3565   8.361   3.647   1.100  0.7450  0.1000  0.0226
  524SOL    HW1 3566   8.416   3.573   1.125 -1.1634 -1.9092 -1.4245
  524SOL    HW2 3567   8.394   3.673   1.014  0.8941  0.4311  0.1764
  525SOL     OW 3568   7.205   6.556   6.298 -0.0076 -0.1937 -0.4862
  525SOL    HW1 3569   7.256   6.569   6.217  0.5098  1.4211  0.0710
  525SOL    HW2 3570   7.116   6.582   6.274  0.3731  1.3930 -0.2553
  526SOL     OW 3571   7.163   6.872   6.024 -0.3350 -0.1914  0.3762
  526SOL    HW1 3572   7.114   6.891   5.944  2.8760  0.2080 -1.6457
  526SOL    HW2 3573   7.132   6.785   6.050 -1.7652 -0.1528 -1.0024
  527SOL     OW 3574   4.296   6.084   5.180  0.6340 -0.5260  0.3699
  527SOL    HW1 3575   4.298   6.167   5.132  0.6232 -1.4892 -1.3495
  527SOL    HW2 3576   4.378   6.083   5.230  0.6914  0.4470  0.3148
  528SOL     OW 3577   4.044   7.744   3.262 -0.2465 -0.5906  0.7896
  528SOL    HW1 3578   3.960   7.706   3.288 -0.2299  0.0226  1.8348
  528SOL    HW2 3579   4.099   7.736   3.340 -0.1934  1.3594  1.0026
  529SOL     OW 3580   4.734   8.489   4.592  0.0063 -0.2747  0.1313
  529SOL    HW1 3581   4.671   8.539   4.644 -0.4807  0.1501 -0.8295
  529SOL    HW2 3582   4.730   8.530   4.505  0.5194 -1.1982 -0.3363
  530SOL     OW 3583   8.196   1.140   6.766 -0.1135 -0.1379 -0.8332
  530SOL    HW1 3584   8.102   1.151   6.757 -0.1551  1.8078  0.9917
  530SOL    HW2 3585   8.233   1.176   6.685 -0.9020 -1.1075 -1.6504
  531SOL     OW 3586   1.343   2.618   2.295 -0.3481  0.1952 -0.2242
  531SOL    HW1 3587   1.288   2.691   2.265 -0.3263  0.5553  0.5794
  531SOL    HW2 3588   1.416   2.660   2.340 -0.5305 -0.3299  0.5722
  532SOL     OW 3589   2.863   4.626   1.667 -0.4174  0.1997 -0.0245
  532SOL    HW1 3590   2.889   4.535   1.653 -0.0345  0.4315 -0.8701
  532SOL    HW2 3591   2.863   4.665   1.580 -2.0497  0.6322  0.1463
  533SOL     OW 3592   4.770   1.108   4.318 -0.1820 -0.4060  0.6411
  533SOL    HW1 3593   4.710   1.115   4.392 -1.9020  0.2420 -0.7548
  533SOL    HW2 3594   4.762   1.017   4.289  0.2046 -0.5565  0.9886
  534SOL     OW 3595   4.470   2.443   4.205  0.3029  0.1067 -0.1528
  534SOL    HW1 3596   4.386   2.399   4.192 -0.8207  2.1990 -0.3932
  534SOL    HW2 3597   4.465   2.478   4.293  0.7512  0.6062 -0.3223
  535SOL     OW 3598   1.219   5.318   5.841 -0.4108  0.0451  0.0345
  535SOL    HW1 3599   1.209   5.326   5.936  3.8728  1.2778  0.5905
  535SOL    HW2 3600   1.192   5.403   5.807 -0.4171  0.1774  0.3671
  536SOL     OW 3601   7.481   6.894   8.071  0.4162 -0.1253  0.0567
  536SOL    HW1 3602   7.551   6.950   8.106  0.5229  0.7048 -1.3961
  536SOL    HW2 3603   7.411   6.899   8.136  0.0085  2.5826 -0.4839
  537SOL     OW 3604   8.195   2.280   8.578 -0.0024  0.1190 -0.7221
  537SOL    HW1 3605   8.257   2.315   8.514  0.4754  0.3183 -0.1640
  537SOL    HW2 3606   8.175   2.192   8.546  0.2479  0.2059 -1.1306
  538SOL     OW 3607   4.588   3.232   6.189  0.1824 -0.3973 -0.3611
  538SOL    HW1 3608   4.623   3.295   6.126 -0.5279  1.4040  0.9520
  538SOL    HW2 3609   4.621   3.262   6.274 -3.4826  0.8130  0.8217
  539SOL     OW 3610   0.187   4.202   3.523  0.0535  1.1168  0.1499
  539SOL    HW1 3611   0.206   4.115   3.489 -0.2468  0.5335  1.4015
  539SOL    HW2 3612   0.205   4.261   3.450  0.5495  0.0390 -0.6282
  540SOL     OW 3613   8.313   8.725   5.308  0.0458 -0.1385 -0.4045
  540SOL    HW1 3614   8.220   8.736   5.329 -0.0622  1.0909 -1.3909
  540SOL    HW2 3615   8.340   8.649   5.359 -1.5952 -0.7762 -0.4074
  541SOL     OW 3616   0.334   1.957   4.222 -0.2030 -0.7038 -0.0553
  541SOL    HW1 3617   0.262   1.916   4.270 -0.8218 -1.5625 -1.6419
  541SOL    HW2 3618   0.302   1.965   4.132  0.3889  2.1672 -0.0918
  542SOL     OW 3619   8.731   5.787   4.157  0.5964  0.4386 -0.5480
  542SOL    HW1 3620   8.778   5.797   4.239 -0.2273  2.4919 -0.2405
  542SOL    HW2 3621   8.783   5.837   4.093  0.4570  0.1166 -0.9156
  543SOL     OW 3622   2.967   0.686   0.064 -0.7504  0.0892  0.4772
  543SOL    HW1 3623   2.922   0.756   0.016  1.2877  1.9585  1.1151
  543SOL    HW2 3624   3.016   0.639  -0.004 -1.9349 -0.5948  0.0761
  544SOL     OW 3625   5.928   5.754   0.709 -0.1840 -0.7081 -0.0436
  544SOL    HW1 3626   5.979   5.789   0.783 -0.6904 -0.1637  0.0541
  544SOL    HW2 3627   5.927   5.825   0.645 -2.1463 -0.0959  0.6014
  545SOL     OW 3628   1.818   7.922   2.067 -0.3926 -0.2070 -0.8324
  545SOL    HW1 3629   1.773   7.913   1.982 -0.6536 -0.0110 -0.7140
  545SOL    HW2 3630   1.751   7.901   2.132 -0.9310  2.1845 -0.5437
  546SOL     OW 3631   7.315   1.978   8.588 -0.0863 -0.3891  0.7609
  546SOL    HW1 3632   7.319   2.052   8.647  0.2540  0.1484  0.0771
  546SOL    HW2 3633   7.304   1.902   8.645 -0.6635  0.2055  1.4499
  547SOL     OW 3634   8.772   4.640   8.356 -0.1690  0.2931  0.0710
  547SOL    HW1 3635   8.802   4.560   8.398  1.3686  0.5304 -0.5260
  547SOL    HW2 3636   8.696   4.613   8.304 -1.4564 -0.1997  2.1065
  548SOL     OW 3637   4.726   2.451   4.136  0.0936 -0.4172 -0.0225
  548SOL    HW1 3638   4.779   2.512   4.187  0.3987 -1.5986  1.1196
  548SOL    HW2 3639   4.636   2.473   4.158  0.2101 -0.5600  0.6264
  549SOL     OW 3640   6.924   4.781   2.311 -0.0635  0.0981  0.2311
  549SOL    HW1 3641   6.986   4.711   2.331 -0.4678 -0.1904  0.4872
  549SOL    HW2 3642   6.979   4.858   2.297  0.2856  0.0804  1.4571
  550SOL     OW 3643   4.071   7.672   4.608  0.1880  0.4113  0.6413
  550SOL    HW1 3644   4.077   7.582   4.641 -2.0325 -0.5144 -1.1853
  550SOL    HW2 3645   3.977   7.685   4.593  0.5607  2.7400  0.0266
  551SOL     OW 3646   8.275   4.877   4.899  0.1751  0.0724  0.0405
  551SOL    HW1 3647   8.314   4.790   4.889  0.3151  0.0489  0.7421
  551SOL    HW2 3648   8.193   4.861   4.946 -0.5106  0.1659 -1.0808
  552SOL     OW 3649   6.414   5.142   6.241 -0.6731 -0.1827  0.1048
  552SOL    HW1 3650   6.411   5.238   6.237  2.0486 -0.0438 -0.2329
  552SOL    HW2 3651   6.506   5.121   6.257 -1.2526 -2.7592  0.5009
  553SOL     OW 3652   1.355   7.457   1.777 -0.5727  0.3884  0.6516
  553SOL    HW1 3653   1.443   7.494   1.764  0.5278 -2.5451 -1.3679
  553SOL    HW2 3654   1.357   7.422   1.866  0.3530  0.2876  0.6035
  554SOL     OW 3655   1.036   8.488   2.478  0.1900  0.0873 -0.0817
  554SOL    HW1 3656   1.066   8.505   2.388  0.5673  0.1877  0.0604
  554SOL    HW2 3657   0.944   8.514   2.478 -0.3539 -1.6511 -0.9418
  555SOL     OW 3658   7.057   6.078   8.268  0.1208  0.0020  0.2294
  555SOL    HW1 3659   7.100   6.142   8.325 -0.5391  0.3731  0.3158
  555SOL    HW2 3660   6.978   6.122   8.237 -0.0376 -0.5606 -0.1833
  556SOL     OW 3661   5.773   5.611   5.179 -0.2141  0.6330  0.4983
  556SOL    HW1 3662   5.745   5.668   5.107  1.5930  0.4629 -0.3895
  556SOL    HW2 3663   5.865   5.632   5.192  0.5496 -2.0608  0.0978
  557SOL     OW 3664   4.734   8.571   0.458  0.4280  0.3244 -0.0277
  557SOL    HW1 3665   4.696   8.622   0.386  1.7444  1.1104 -0.1827
  557SOL    HW2 3666   4.804   8.626   0.492 -0.5901  0.2798  2.3347
  558SOL     OW 3667   5.581   3.162   6.025 -0.2443  0.5721  0.2225
  558SOL    HW1 3668   5.654   3.190   5.970 -0.6398 -1.2005 -1.3410
  558SOL    HW2 3669   5.606   3.074   6.055 -0.3242  1.2350  2.4396
  559SOL     OW 3670   3.564   6.389   5.795 -0.5470  0.2438 -0.1467
  559SOL    HW1 3671   3.646   6.393   5.746 -0.7756 -1.1582 -0.7227
  559SOL    HW2 3672   3.585   6.337   5.873 -1.1572 -1.4011 -1.0116
  560SOL     OW 3673   1.756   2.639   0.552 -0.4507  0.0089  0.2410
  560SOL    HW1 3674   1.833   2.609   0.504 -0.8491  0.1199 -0.4894
  560SOL    HW2 3675   1.702   2.681   0.485 -1.3323 -0.4309  0.6614
  561SOL     OW 3676   1.731   0.123   6.848  0.3941  0.1753 -0.1769
  561SOL    HW1 3677   1.791   0.049   6.862  0.6084  0.3831  0.0275
  561SOL    HW2 3678   1.775   0.197   6.891 -1.0343 -0.1355  1.9357
  562SOL     OW 3679   6.424   6.708   8.322  0.0601 -0.3082 -0.2271
  562SOL    HW1 3680   6.466   6.656   8.254 -0.3611 -0.8178 -0.1051
  562SOL    HW2 3681   6.372   6.773   8.275  1.8469  1.0724 -0.3842
  563SOL     OW 3682   4.959   8.005   3.737  0.1990  0.0556 -0.1343
  563SOL    HW1 3683   5.031   7.975   3.681 -0.8716  0.4392 -1.7735
  563SOL    HW2 3684   4.993   7.996   3.826  1.0890 -2.9608 -0.6725
  564SOL     OW 3685   6.118   2.618   6.826  0.0870  0.4950 -0.0025
  564SOL    HW1 3686   6.139   2.527   6.847 -1.2866 -0.2972 -1.7511
  564SOL    HW2 3687   6.198   2.654   6.788  1.3730  0.7918  2.7949
  565SOL     OW 3688   3.695   1.256   2.817  0.0391  0.0343  0.1095
  565SOL    HW1 3689   3.624   1.254   2.753 -0.0980 -1.3619  0.2548
  565SOL    HW2 3690   3.652   1.237   2.900  0.3021  1.2555  0.5430
  566SOL     OW 3691   3.345   3.397   0.487  0.0810 -0.2975  0.8322
  566SOL    HW1 3692   3.354   3.315   0.439 -1.7399  0.3485 -0.7482
  566SOL    HW2 3693   3.410   3.391   0.558  1.5095 -2.1282 -0.5340
  567SOL     OW 3694   2.797   5.552   1.875 -0.0667 -0.5954 -0.3289
  567SOL    HW1 3695   2.805   5.630   1.819 -0.3572 -1.6405 -1.8762
  567SOL    HW2 3696   2.724   5.503   1.837 -0.4501 -1.2270  1.1500
  568SOL     OW 3697   8.153   2.334   0.862 -0.0618 -0.3282 -0.3068
  568SOL    HW1 3698   8.123   2.392   0.792  0.5182  0.1048 -0.2043
  568SOL    HW2 3699   8.152   2.247   0.824  3.7927  0.2222 -2.1440
  569SOL     OW 3700   4.124   4.988   3.859  0.1239  0.0712 -0.2053
  569SOL    HW1 3701   4.109   4.938   3.779 -1.4122  1.5834 -0.9140
  569SOL    HW2 3702   4.111   4.924   3.930  0.8271 -1.1244 -1.1182
  570SOL     OW 3703   0.996   4.096   5.236 -0.6073 -0.7532  0.6453
  570SOL    HW1 3704   0.944   4.122   5.312 -1.0723 -1.4803  0.5860
  570SOL    HW2 3705   1.017   4.004   5.252  1.2034 -0.3197  0.9734
  571SOL     OW 3706   6.106   8.469   6.148 -0.5067  0.2343  0.4280
  571SOL    HW1 3707   6.136   8.479   6.238 -0.4055  2.1592  0.2234
  571SOL    HW2 3708   6.099   8.559   6.115 -1.5880 -0.3810 -1.1395
  572SOL     OW 3709   7.676   7.142   1.503  0.0149  0.3138 -0.0663
  572SOL    HW1 3710   7.612   7.195   1.550 -2.8846 -1.4686 -1.6891
  572SOL    HW2 3711   7.722   7.093   1.571 -0.8440  1.1144  1.1287
  573SOL     OW 3712   6.950   8.048   8.200 -0.0692 -0.2495 -0.0114
  573SOL    HW1 3713   6.933   8.139   8.173 -0.0432 -0.6807 -1.5903
  573SOL    HW2 3714   6.918   8.043   8.289  0.1344  1.3817  0.1891
  574SOL     OW 3715   1.441   0.270   8.161  0.0964  0.8168 -0.3742
  574SOL    HW1 3716   1.518   0.237   8.114  0.1751 -0.7274  0.7842
  574SOL    HW2 3717   1.387   0.193   8.177  0.4448  1.0887  2.7167
  575SOL     OW 3718   5.134   3.516   3.873 -0.5933 -0.0718 -0.6618
  575SOL    HW1 3719   5.055   3.469   3.847 -0.0052 -1.2442 -0.4500
  575SOL    HW2 3720   5.138   3.592   3.815 -2.9229  1.1580  0.6513
  576SOL     OW 3721   7.520   4.116   2.265 -0.3670 -0.3704 -0.5281
  576SOL    HW1 3722   7.428   4.141   2.277  0.3597  0.8479  6.1281
  576SOL    HW2 3723   7.528   4.033   2.314  1.7839 -1.6760 -2.8764
  577SOL     OW 3724   2.748   2.891   1.860  0.3561  0.4425 -0.3473
  577SOL    HW1 3725   2.728   2.953   1.930 -0.3717  0.2995 -0.4226
  577SOL    HW2 3726   2.711   2.808   1.889  2.0920 -0.1961  0.1574
  578SOL     OW 3727   5.219   5.383   5.278 -0.3592 -0.1558 -0.1304
  578SOL    HW1 3728   5.225   5.433   5.197  0.0868  2.7675  1.5832
  578SOL    HW2 3729   5.170   5.439   5.338 -0.0461 -1.8901  1.8736
  579SOL     OW 3730   0.513   8.000   7.691 -0.1874  0.4855  0.4114
  579SOL    HW1 3731   0.418   7.993   7.698 -0.0140 -0.9146  1.7817
  579SOL    HW2 3732   0.544   8.009   7.782  1.0892 -0.9065  0.1646
  580SOL     OW 3733   0.007   7.295   5.615 -0.0447 -0.0924  0.9400
  580SOL    HW1 3734  -0.048   7.278   5.538 -0.6791 -2.2756  1.8105
  580SOL    HW2 3735   0.065   7.366   5.587 -1.1110  0.0648 -1.1097
  581SOL     OW 3736   3.590   0.872   5.600 -0.2377 -0.0390 -0.4130
  581SOL    HW1 3737   3.680   0.882   5.631 -0.2501  0.7480 -0.6236
  581SOL    HW2 3738   3.536   0.889   5.677 -0.2087 -2.0544  0.1294
  582SOL     OW 3739   2.752   5.881   2.056 -0.6927  0.0348  0.3753
  582SOL    HW1 3740   2.735   5.862   1.964 -0.5116  2.3732 -0.1893
  582SOL    HW2 3741   2.826   5.824   2.078 -0.8601 -0.6991 -0.8496
  583SOL     OW 3742   2.038   0.366   6.567  0.2881  0.2483  0.4579
  583SOL    HW1 3743   2.017   0.455   6.538 -0.8433 -0.8947 -2.6371
  583SOL    HW2 3744   1.958   0.316   6.550  1.1559 -1.5491  1.3592
  584SOL     OW 3745   1.389   3.127   8.532 -0.0573 -0.1351 -0.0095
  584SOL    HW1 3746   1.416   3.149   8.443  1.4645 -0.9678  0.2117
  584SOL    HW2 3747   1.470   3.126   8.583 -1.0229  1.6317  1.7246
  585SOL     OW 3748   7.562   4.522   7.997  0.0446 -0.1438 -0.0280
  585SOL    HW1 3749   7.545   4.468   7.920  2.7071 -0.1137 -0.7394
  585SOL    HW2 3750   7.623   4.590   7.967  0.3563  0.4886  1.8556
  586SOL     OW 3751   4.719   2.390   2.218  0.2394 -0.0307 -0.3165
  586SOL    HW1 3752   4.675   2.313   2.254  1.7672 -1.2875 -1.0206
  586SOL    HW2 3753   4.650   2.457   2.212 -1.1775 -1.4075  0.1155
  587SOL     OW 3754   1.979   6.872   8.025 -0.0045 -0.0608  0.1036
  587SOL    HW1 3755   2.002   6.961   8.054  0.3725 -0.5491  1.3731
  587SOL    HW2 3756   1.939   6.885   7.939 -1.3394  1.4929  0.8945
  588SOL     OW 3757   2.622   6.927   5.460 -0.3572 -0.0112  0.0298
  588SOL    HW1 3758   2.547   6.878   5.427 -0.3914  0.2739 -0.3153
  588SOL    HW2 3759   2.666   6.865   5.519  0.5298 -1.0620 -1.6356
  589SOL     OW 3760   3.808   3.753   2.078 -0.1767  0.3089  0.0267
  589SOL    HW1 3761   3.818   3.839   2.120  1.3940  0.4017 -0.4532
  589SOL    HW2 3762   3.898   3.725   2.061 -0.6535 -1.5329  0.3438
  590SOL     OW 3763   5.661   8.344   6.267  0.3219 -0.1473 -0.2755
  590SOL    HW1 3764   5.706   8.390   6.195 -2.0985 -1.0454 -2.5229
  590SOL    HW2 3765   5.675   8.400   6.343  2.1581  1.4086 -1.6441
  591SOL     OW 3766   5.079   4.871   3.094  0.4992  0.4411 -0.1123
  591SOL    HW1 3767   4.996   4.900   3.133 -0.8452 -0.6844 -1.9383
  591SOL    HW2 3768   5.113   4.948   3.049 -0.6158  0.4441 -1.0024
  592SOL     OW 3769   4.803   4.372   0.169 -0.6398  0.3241 -0.0066
  592SOL    HW1 3770   4.809   4.276   0.164 -1.2077  0.2575  0.4872
  592SOL    HW2 3771   4.882   4.403   0.125  0.3468 -0.4027  1.1940
  593SOL     OW 3772   4.701   0.373   5.241  0.2830  0.4507 -0.9855
  593SOL    HW1 3773   4.774   0.366   5.302  1.0436 -0.6920 -1.9867
  593SOL    HW2 3774   4.623   0.352   5.293  0.8518  0.0191 -0.3030
  594SOL     OW 3775   5.412   4.112   2.074 -0.2181  0.7934  0.1229
  594SOL    HW1 3776   5.451   4.151   2.152 -1.3468 -0.9709  1.6607
  594SOL    HW2 3777   5.482   4.059   2.035 -0.1010  0.3590  0.9122
  595SOL     OW 3778   3.441   8.377   6.764  0.4233 -0.1821  0.0057
  595SOL    HW1 3779   3.434   8.435   6.688  1.9417  1.7674  1.2421
  595SOL    HW2 3780   3.451   8.289   6.726  0.8073  0.6756 -2.0298
  596SOL     OW 3781   2.481   2.427   2.064  0.2659 -0.0758 -0.4846
  596SOL    HW1 3782   2.441   2.357   2.013  0.8285 -0.6644 -0.1245
  596SOL    HW2 3783   2.519   2.384   2.140 -1.0699  0.8758  0.7660
  597SOL     OW 3784   2.842   2.584   5.319 -0.8432 -0.2365 -0.1310
  597SOL    HW1 3785   2.848   2.624   5.406 -1.2901  1.5561 -0.8979
  597SOL    HW2 3786   2.763   2.621   5.280  0.0044 -0.0542 -1.7790
  598SOL     OW 3787   3.916   5.837   4.228  0.2552 -0.2854 -0.5224
  598SOL    HW1 3788   3.899   5.837   4.322  1.9375  0.5219 -0.1856
  598SOL    HW2 3789   3.833   5.866   4.189 -0.1202  0.5015  0.7890
  599SOL     OW 3790   3.017   4.003   4.149 -0.0791  0.0378 -0.2863
  599SOL    HW1 3791   2.946   4.044   4.099 -1.5490 -0.1819  1.4955
  599SOL    HW2 3792   3.097   4.036   4.109 -1.1972  1.6639 -1.3006
  600SOL     OW 3793   4.035   6.982   4.779  0.6038 -0.4890 -0.0815
  600SOL    HW1 3794   4.006   7.049   4.717  1.1421 -3.3477 -3.7792
  600SOL    HW2 3795   3.954   6.951   4.819  0.0985  0.6764 -0.1404
  601SOL     OW 3796   4.518   3.373   2.569  0.0623  0.4586 -0.3155
  601SOL    HW1 3797   4.492   3.390   2.660  1.2795  0.2066  0.0935
  601SOL    HW2 3798   4.614   3.377   2.570  0.0742  1.1033 -1.7225
  602SOL     OW 3799   8.354   0.312   1.156  0.3552  0.3942 -0.0154
  602SOL    HW1 3800   8.428   0.264   1.119 -1.0939 -1.2341 -0.9433
  602SOL    HW2 3801   8.303   0.246   1.203 -0.2656  1.5725  1.0294
  603SOL     OW 3802   4.032   7.175   7.441 -0.3442 -0.0347 -0.0196
  603SOL    HW1 3803   4.019   7.114   7.514  0.9309 -0.3396 -0.0166
  603SOL    HW2 3804   3.945   7.185   7.403 -0.9948 -0.0433  1.3982
  604SOL     OW 3805   4.373   8.546   7.750  0.6734 -0.7839 -0.0034
  604SOL    HW1 3806   4.403   8.588   7.670  1.6519 -0.7815  0.3391
  604SOL    HW2 3807   4.356   8.455   7.725  1.5794 -0.9391 -0.0979
  605SOL     OW 3808   6.827   5.711   6.809  0.2142 -0.2751  0.1170
  605SOL    HW1 3809   6.903   5.685   6.757  1.3789  3.4770 -0.3498
  605SOL    HW2 3810   6.760   5.732   6.744 -0.2184 -0.6822  0.4193
  606SOL     OW 3811   4.365   1.010   5.751  0.6856 -0.1738 -0.2854
  606SOL    HW1 3812   4.278   1.047   5.741 -0.5805 -3.0466 -1.1764
  606SOL    HW2 3813   4.392   1.034   5.839 -1.3538  0.1317  0.2994
  607SOL     OW 3814   1.234   4.068   0.512 -0.2386 -0.1389  0.1917
  607SOL    HW1 3815   1.255   3.979   0.541  0.8814 -0.2062 -0.7681
  607SOL    HW2 3816   1.164   4.057   0.448 -2.4263 -0.0232  2.3862
  608SOL     OW 3817   4.158   1.666   3.582 -0.4146 -0.0486  0.4984
  608SOL    HW1 3818   4.243   1.633   3.612 -0.3108  0.2801  0.5698
  608SOL    HW2 3819   4.100   1.656   3.658 -0.1554  0.7711  0.8223
  609SOL     OW 3820   8.322   2.296   5.028  0.5851 -0.5005  0.7488
  609SOL    HW1 3821   8.230   2.288   5.052  0.1627 -0.5789 -0.7665
  609SOL    HW2 3822   8.364   2.220   5.067 -0.7705 -2.7691 -1.7950
  610SOL     OW 3823   8.512   4.102   2.977 -0.5609 -0.4095  0.1980
  610SOL    HW1 3824   8.545   4.048   3.049 -0.4500  0.8053  1.0906
  610SOL    HW2 3825   8.590   4.126   2.927 -0.3797  0.3294  0.8117
  611SOL     OW 3826   6.699   4.498   0.019 -1.1834 -0.9436 -0.5425
  611SOL    HW1 3827   6.740   4.553  -0.047 -1.3247  0.2183  0.3014
  611SOL    HW2 3828   6.708   4.409  -0.015  4.6710 -1.2888  0.7949
  612SOL     OW 3829   3.595   1.024   4.877 -0.1306  0.0107  0.4515
  612SOL    HW1 3830   3.583   0.987   4.965 -1.7093 -1.6208 -0.3683
  612SOL    HW2 3831   3.565   0.954   4.818  4.7038 -0.6625 -1.6626
  613SOL     OW 3832   0.772   7.538   6.151  0.3058 -0.0700  0.1549
  613SOL    HW1 3833   0.858   7.499   6.169  1.2402  2.6768  2.2601
  613SOL    HW2 3834   0.719   7.517   6.228  0.4664  1.7659  0.7923
  614SOL     OW 3835   1.530   4.168   8.844  0.3496  0.9249 -0.2275
  614SOL    HW1 3836   1.606   4.115   8.868  0.5247  1.5034  0.5436
  614SOL    HW2 3837   1.470   4.106   8.802  1.0277  0.3583 -0.3793
  615SOL     OW 3838   4.185   7.453   3.838  0.5807 -0.6216  0.4207
  615SOL    HW1 3839   4.187   7.382   3.902 -2.1796 -0.8303  0.3943
  615SOL    HW2 3840   4.270   7.448   3.794  1.1634 -2.7339  1.6350
  616SOL     OW 3841   6.729   7.227   5.578 -0.1614  0.2899  0.5386
  616SOL    HW1 3842   6.818   7.236   5.543 -0.3230  0.7957  0.2448
  616SOL    HW2 3843   6.739   7.172   5.655  0.3364 -0.0817  0.2164
  617SOL     OW 3844   6.061   7.055   8.001 -0.2417  0.0144 -0.0659
  617SOL    HW1 3845   6.035   7.107   8.077 -0.0992  1.9934 -1.2779
  617SOL    HW2 3846   6.121   7.113   7.953  0.7874 -1.7256 -0.9559
  618SOL     OW 3847   0.614   4.004   4.493 -0.2230 -0.0294  0.3915
  618SOL    HW1 3848   0.653   3.941   4.432 -1.5572 -0.1417 -0.3788
  618SOL    HW2 3849   0.536   4.036   4.449 -0.1963  1.3255  1.2642
  619SOL     OW 3850   3.295   6.690   1.858 -0.1682 -0.3067 -0.6363
  619SOL    HW1 3851   3.286   6.715   1.766 -1.9145  2.6567  0.2326
  619SOL    HW2 3852   3.372   6.738   1.889 -1.1351  0.8152  0.0667
  620SOL     OW 3853   8.662   4.062   4.050 -0.0746  0.5438 -0.1634
  620SOL    HW1 3854   8.668   4.102   3.964  1.1325 -1.7076 -1.2262
  620SOL    HW2 3855   8.751   4.032   4.069  0.2181  2.8236  2.8892
  621SOL     OW 3856   7.566   5.312   0.421 -0.7555  0.2932 -0.9603
  621SOL    HW1 3857   7.474   5.314   0.447 -0.6944  0.9469 -0.7699
  621SOL    HW2 3858   7.575   5.385   0.360 -0.7638 -0.8639 -2.3948
  622SOL     OW 3859   2.680   8.382   0.249  0.3314  0.3926  0.1540
  622SOL    HW1 3860   2.676   8.453   0.184 -1.1600 -1.1878 -1.5809
  622SOL    HW2 3861   2.716   8.308   0.200 -0.0140 -0.6066  1.3947
  623SOL     OW 3862   1.272   1.016   1.684 -0.2185 -0.0586 -0.3562
  623SOL    HW1 3863   1.204   1.005   1.617 -0.0584 -0.7556 -0.4078
  623SOL    HW2 3864   1.343   0.959   1.657  0.7208  1.2361 -0.7011
  624SOL     OW 3865   3.645   2.757   7.067 -0.0113  0.1715  0.3365
  624SOL    HW1 3866   3.666   2.686   7.127  0.1399  0.8532  1.1199
  624SOL    HW2 3867   3.579   2.809   7.113  0.2583  0.8221  0.0152
  625SOL     OW 3868   7.951   7.196   0.852 -0.1508 -0.0180 -0.1986
  625SOL    HW1 3869   7.917   7.216   0.939  1.0328  0.5303  0.1652
  625SOL    HW2 3870   7.941   7.101   0.844 -0.6087 -0.0242  0.3838
  626SOL     OW 3871   8.652   0.122   7.410  0.1499 -0.0634  0.0925
  626SOL    HW1 3872   8.634   0.048   7.468 -0.3099 -0.1743 -0.1873
  626SOL    HW2 3873   8.572   0.131   7.357  0.4874  0.1654 -0.3810
  627SOL     OW 3874   8.012   5.685   0.226 -0.3085  0.4769  0.1784
  627SOL    HW1 3875   7.927   5.714   0.258  0.2544  0.1211  2.0919
  627SOL    HW2 3876   8.052   5.764   0.188 -0.3001  1.3664  1.9664
  628SOL     OW 3877   0.096   4.193   2.185  0.0864 -0.4357  0.2881
  628SOL    HW1 3878   0.052   4.278   2.175 -0.4193 -0.7853 -0.5091
  628SOL    HW2 3879   0.034   4.140   2.235  1.3408  0.3421  2.8795
  629SOL     OW 3880   4.682   0.369   4.155 -0.1348  0.1402 -0.1635
  629SOL    HW1 3881   4.757   0.429   4.160 -0.0847  0.0236  0.5680
  629SOL    HW2 3882   4.649   0.364   4.244 -1.1368  0.3266 -0.5194
  630SOL     OW 3883   8.491   1.781   4.300 -0.4203  0.4995 -0.3765
  630SOL    HW1 3884   8.418   1.740   4.253 -0.8228 -0.9374  1.3916
  630SOL    HW2 3885   8.451   1.821   4.378  0.4283  1.4864 -0.4126
  631SOL     OW 3886   4.014   0.806   7.531 -0.1055  0.3650 -0.0109
  631SOL    HW1 3887   3.992   0.884   7.480 -1.2177  0.4861  0.6058
  631SOL    HW2 3888   3.931   0.760   7.541 -0.1773  0.8761  2.5316
  632SOL     OW 3889   7.656   5.390   5.327  0.4163  0.5511  0.1872
  632SOL    HW1 3890   7.741   5.433   5.315  0.4087  0.6384  0.4457
  632SOL    HW2 3891   7.601   5.456   5.369  0.2888  0.4150  0.2333
  633SOL     OW 3892   7.403   3.592   7.871  0.3728 -0.0927 -0.2997
  633SOL    HW1 3893   7.472   3.599   7.936  0.0531  2.1385 -0.1185
  633SOL    HW2 3894   7.436   3.529   7.806  2.1125  0.1594  0.3032
  634SOL     OW 3895   3.644   8.230   3.629  0.3078 -0.7484  0.0701
  634SOL    HW1 3896   3.645   8.279   3.711 -1.5370  2.2516 -1.5038
  634SOL    HW2 3897   3.718   8.265   3.579 -0.4443 -0.2123 -0.7042
  635SOL     OW 3898   2.210   2.249   4.777  0.5409  0.1190  0.3895
  635SOL    HW1 3899   2.198   2.256   4.682 -0.5042  0.5896  0.5386
  635SOL    HW2 3900   2.151   2.178   4.803 -2.0351  2.3545  1.1300
  636SOL     OW 3901   7.492   5.791   3.208  0.5651 -0.6499 -0.3673
  636SOL    HW1 3902   7.406   5.831   3.199 -0.4854 -2.2120  1.8818
  636SOL    HW2 3903   7.554   5.863   3.194 -1.1952  1.5581  2.3059
  637SOL     OW 3904   2.745   8.318   2.235 -0.0729 -0.1005 -0.0029
  637SOL    HW1 3905   2.666   8.324   2.289  0.1099 -3.0380  0.7555
  637SOL    HW2 3906   2.815   8.297   2.298  1.7348  3.8632 -0.4274
  638SOL     OW 3907   6.720   8.615   5.615  0.4103 -0.2395  0.6500
  638SOL    HW1 3908   6.646   8.565   5.581  1.9512 -0.8367 -2.1785
  638SOL    HW2 3909   6.683   8.700   5.639 -1.1971 -0.4682 -0.8258
  639SOL     OW 3910   8.765   3.152   7.436 -0.0037 -0.2150  0.0365
  639SOL    HW1 3911   8.789   3.070   7.480  0.9064  0.0262 -0.0029
  639SOL    HW2 3912   8.847   3.187   7.403 -0.0011  1.9172  2.0852
  640SOL     OW 3913   5.373   0.974   0.179 -0.0441  0.3080  0.2390
  640SOL    HW1 3914   5.362   1.012   0.091 -0.1307  0.6370  0.3898
  640SOL    HW2 3915   5.418   1.043   0.228  0.1266  0.0699  0.4151
  641SOL     OW 3916   6.498   7.914   0.784 -0.1975 -0.2950 -0.2371
  641SOL    HW1 3917   6.531   7.962   0.860 -0.6041  0.9691 -0.8203
  641SOL    HW2 3918   6.413   7.879   0.812  0.9765 -2.4391  0.8417
  642SOL     OW 3919   5.515   2.677   4.168  0.0562 -0.1260  0.4708
  642SOL    HW1 3920   5.466   2.650   4.090 -0.7615  2.2308  0.0699
  642SOL    HW2 3921   5.584   2.611   4.177  0.4190 -0.3113 -2.5002
  643SOL     OW 3922   2.854   3.895   5.507 -0.3207  0.4986 -0.5022
  643SOL    HW1 3923   2.891   3.844   5.435  0.3248 -0.0719  0.2160
  643SOL    HW2 3924   2.759   3.883   5.498 -0.1909 -2.4618  0.7229
  644SOL     OW 3925   2.956   5.537   7.449 -0.4470  0.1438 -0.1659
  644SOL    HW1 3926   3.012   5.556   7.373 -0.3639  0.1934 -0.0926
  644SOL    HW2 3927   2.940   5.443   7.444 -1.5970  0.3640 -1.0412
  645SOL     OW 3928   7.301   2.980   8.850 -0.0401  0.1255 -0.3932
  645SOL    HW1 3929   7.281   2.918   8.920  1.6691 -0.6291 -0.5319
  645SOL    HW2 3930   7.258   2.944   8.773 -0.0877 -0.2199 -0.2077
  646SOL     OW 3931   8.492   5.355   5.921  0.1413 -0.0446 -0.0565
  646SOL    HW1 3932   8.577   5.367   5.879  0.6754 -0.5402  0.8560
  646SOL    HW2 3933   8.444   5.296   5.863  0.6227 -0.2131 -0.2846
  647SOL     OW 3934   0.997   1.009   3.059 -0.1455  0.1317 -0.0316
  647SOL    HW1 3935   1.079   0.961   3.044 -1.1887 -1.5290 -0.8083
  647SOL    HW2 3936   1.025   1.097   3.082  1.8462 -0.2060 -0.8910
  648SOL     OW 3937   6.312   0.237   8.556  0.0427  0.1931  0.0542
  648SOL    HW1 3938   6.387   0.206   8.606  0.2794  1.2104  0.3522
  648SOL    HW2 3939   6.287   0.319   8.599 -1.2459 -0.1334 -0.0255
  649SOL     OW 3940   4.436   4.940   2.934  0.0608 -0.2420 -0.1677
  649SOL    HW1 3941   4.529   4.963   2.927  0.2809 -1.3271 -1.0672
  649SOL    HW2 3942   4.420   4.934   3.028  0.6060  1.0278  0.0348
  650SOL     OW 3943   3.468   4.391   7.723  0.0089 -0.1092  0.6384
  650SOL    HW1 3944   3.485   4.395   7.817  1.5553  1.1081  0.3482
  650SOL    HW2 3945   3.552   4.412   7.682 -1.1842  2.0058 -0.9874
  651SOL     OW 3946   8.423   4.399   0.470  0.4064 -0.1673  0.5931
  651SOL    HW1 3947   8.481   4.420   0.398 -0.2452 -2.5151 -0.7281
  651SOL    HW2 3948   8.481   4.387   0.545  1.5610 -1.5757 -0.4810
  652SOL     OW 3949   5.308   8.552   7.285  0.6536 -0.2304 -0.0534
  652SOL    HW1 3950   5.252   8.476   7.263  1.6136 -0.5814 -1.4638
  652SOL    HW2 3951   5.300   8.561   7.380 -1.2812 -0.6618 -0.1209
  653SOL     OW 3952   5.647   4.156   1.576 -0.6227 -0.2172  0.5934
  653SOL    HW1 3953   5.593   4.233   1.562  0.4717  0.3350 -0.7873
  653SOL    HW2 3954   5.591   4.096   1.626 -1.0955  1.9072  2.7938
  654SOL     OW 3955   1.185   3.883   5.817  0.5426 -0.4301 -0.7741
  654SOL    HW1 3956   1.175   3.834   5.736 -1.2139  0.7874 -1.3575
  654SOL    HW2 3957   1.117   3.951   5.812  0.2390 -0.4700  1.8210
  655SOL     OW 3958   4.838   2.904   4.590 -0.1190 -0.4526  0.0594
  655SOL    HW1 3959   4.825   2.966   4.661 -2.5336 -0.5986 -0.1782
  655SOL    HW2 3960   4.931   2.909   4.570 -0.0458  2.2746  0.7709
  656SOL     OW 3961   3.294   6.598   6.952 -0.0468  0.1723 -0.1827
  656SOL    HW1 3962   3.259   6.669   6.898 -1.1140 -1.4091 -1.6551
  656SOL    HW2 3963   3.318   6.529   6.890  0.5106 -0.9748  1.2361
  657SOL     OW 3964   6.974   6.465   4.091 -0.0455  0.3362  0.1631
  657SOL    HW1 3965   7.070   6.462   4.085 -0.1062 -0.3420 -0.6598
  657SOL    HW2 3966   6.955   6.550   4.131  0.8448  1.1155 -1.0286
  658SOL     OW 3967   1.329   0.146   7.770  0.0559 -0.0043 -0.0940
  658SOL    HW1 3968   1.296   0.168   7.683 -0.4773  0.7710  0.3005
  658SOL    HW2 3969   1.350   0.230   7.810  1.4767 -0.4161  0.0825
  659SOL     OW 3970   1.837   3.578   2.458  1.0549  0.1973 -0.3409
  659SOL    HW1 3971   1.850   3.494   2.502  0.7205 -0.3513 -1.2906
  659SOL    HW2 3972   1.888   3.640   2.511 -1.8666  0.2115  2.7877
  660SOL     OW 3973   7.274   8.685   2.592 -0.1401  0.1741  0.1629
  660SOL    HW1 3974   7.208   8.732   2.541 -0.1969  0.2143  0.2720
  660SOL    HW2 3975   7.296   8.609   2.539  0.0215  0.3727 -0.0590
  661SOL     OW 3976   7.948   2.142   5.301  0.2982  0.1143  0.3414
  661SOL    HW1 3977   8.032   2.188   5.303  0.4939 -0.2220  2.4443
  661SOL    HW2 3978   7.887   2.202   5.344 -0.2078 -0.2321  0.1122
  662SOL     OW 3979   6.601   0.894   0.745 -0.1408  0.2457 -0.4924
  662SOL    HW1 3980   6.681   0.852   0.777  0.2239  0.8266 -0.6284
  662SOL    HW2 3981   6.632   0.971   0.696 -0.7838  0.5460 -0.4366
  663SOL     OW 3982   6.858   6.394   5.651  0.3473  0.5938 -0.0080
  663SOL    HW1 3983   6.908   6.410   5.570  0.2143  1.7449  0.1178
  663SOL    HW2 3984   6.775   6.439   5.637  0.9157  2.1570  1.3657
  664SOL     OW 3985   0.149   8.141   2.334 -1.1262 -0.4948 -0.3519
  664SOL    HW1 3986   0.195   8.065   2.369  0.0846 -0.0503 -0.9192
  664SOL    HW2 3987   0.139   8.199   2.409 -0.3341 -0.4092 -0.2968
  665SOL     OW 3988   2.658   3.609   8.398  0.1019 -0.3552 -0.8622
  665SOL    HW1 3989   2.571   3.645   8.417  0.5160  0.4768 -0.5281
  665SOL    HW2 3990   2.668   3.618   8.303  0.4430  0.9833 -0.7130
  666SOL     OW 3991   1.037   2.465   3.820 -0.3216  0.1215  0.4984
  666SOL    HW1 3992   0.979   2.453   3.745  1.5526  0.7708 -1.1530
  666SOL    HW2 3993   0.981   2.450   3.897 -2.6033  0.6766 -0.9660
  667SOL     OW 3994   3.388   2.677   6.424 -0.3731 -0.0777 -0.1211
  667SOL    HW1 3995   3.343   2.593   6.420 -0.0069 -0.3708  1.2429
  667SOL    HW2 3996   3.326   2.736   6.468  0.1595 -0.2270  0.8730
  668SOL     OW 3997   6.274   1.984   2.506 -0.2702  0.2327 -0.2582
  668SOL    HW1 3998   6.368   1.966   2.515 -0.6725 -1.0583  2.0452
  668SOL    HW2 3999   6.236   1.901   2.479 -0.8813  0.5387 -0.3645
  669SOL     OW 4000   5.659   0.424   5.972  0.6391  0.0382 -0.0799
  669SOL    HW1 4001   5.708   0.357   6.020 -0.8363  0.2817  1.8758
  669SOL    HW2 4002   5.568   0.393   5.974  0.3870  0.4874 -2.0577
  670SOL     OW 4003   7.768   4.764   5.943 -0.0540  0.6080  0.3942
  670SOL    HW1 4004   7.686   4.788   5.986  0.3528  1.8926  0.4868
  670SOL    HW2 4005   7.816   4.715   6.010  0.2055  1.8363  1.1271
  671SOL     OW 4006   8.005   1.784   8.748 -0.0952 -0.7277  0.2114
  671SOL    HW1 4007   8.056   1.703   8.751 -0.7134 -1.1539 -0.4958
  671SOL    HW2 4008   7.935   1.766   8.685  0.1540  0.5753 -0.4700
  672SOL     OW 4009   7.867   2.211   1.087  0.0864 -0.2221  0.2273
  672SOL    HW1 4010   7.950   2.260   1.086 -0.1044  0.1631  1.3845
  672SOL    HW2 4011   7.861   2.177   1.177 -0.5254 -1.1032 -0.1341
  673SOL     OW 4012   2.023   2.484   7.664 -0.1088 -0.0064  0.6399
  673SOL    HW1 4013   1.935   2.505   7.634  0.9964  0.5708 -2.6369
  673SOL    HW2 4014   2.036   2.538   7.741 -2.2535  0.6341  0.6069
  674SOL     OW 4015   6.191   3.664   1.012  0.5891  0.4677  0.0865
  674SOL    HW1 4016   6.207   3.747   0.966  1.4801  0.2642  0.0145
  674SOL    HW2 4017   6.278   3.634   1.038  0.6273 -1.7465 -2.1647
  675SOL     OW 4018   1.871   3.521   4.503 -0.3708 -0.0707  0.8476
  675SOL    HW1 4019   1.850   3.557   4.416 -0.3881 -0.7480  0.5656
  675SOL    HW2 4020   1.811   3.447   4.513  0.6931 -0.9605  0.7699
  676SOL     OW 4021   1.610   2.805   1.954 -0.2929  0.2553  0.1205
  676SOL    HW1 4022   1.596   2.781   1.863 -0.5565 -0.6171  0.3848
  676SOL    HW2 4023   1.539   2.866   1.974 -1.1274 -0.7165  0.1720
  677SOL     OW 4024   2.859   6.681   1.103 -0.3450 -0.1574 -0.0618
  677SOL    HW1 4025   2.860   6.709   1.011 -1.4758 -1.5563 -0.5344
  677SOL    HW2 4026   2.913   6.602   1.104  0.2475  0.2398  0.6382
  678SOL     OW 4027   6.772   5.904   1.892 -0.3728  0.5804 -0.0407
  678SOL    HW1 4028   6.706   5.863   1.836  0.1270  0.1675 -0.3392
  678SOL    HW2 4029   6.747   5.881   1.981  0.9483 -2.0785 -0.2427
  679SOL     OW 4030   6.643   7.678   4.092  0.7095 -0.3595 -0.0891
  679SOL    HW1 4031   6.593   7.708   4.016  1.2484 -0.8910 -0.6598
  679SOL    HW2 4032   6.734   7.674   4.061  1.1219  0.5815  0.9313
  680SOL     OW 4033   1.313   7.537   3.715  0.2341  0.0813  0.7254
  680SOL    HW1 4034   1.268   7.614   3.751 -0.8616 -0.0953 -0.2176
  680SOL    HW2 4035   1.276   7.527   3.627 -0.7310 -2.3779  1.3406
  681SOL     OW 4036   8.039   1.923   7.884 -0.2201  0.3204  0.0337
  681SOL    HW1 4037   8.120   1.880   7.912 -0.6536 -0.5705 -0.0258
  681SOL    HW2 4038   7.990   1.937   7.965 -0.3130  0.1935  0.0004
  682SOL     OW 4039   8.865   7.143   2.020 -0.0697 -0.3778  0.4190
  682SOL    HW1 4040   8.924   7.129   2.093 -1.6913 -0.8011  1.6979
  682SOL    HW2 4041   8.817   7.061   2.010 -1.2662  0.3071  0.2103
  683SOL     OW 4042   1.058   5.298   8.108  0.0474 -0.1702  0.8831
  683SOL    HW1 4043   1.140   5.346   8.096 -0.3983  0.1598 -1.1735
  683SOL    HW2 4044   0.991   5.355   8.071 -0.9928 -0.8366  1.7036
  684SOL     OW 4045   7.285   5.489   5.000 -0.3129 -0.0455  0.6417
  684SOL    HW1 4046   7.282   5.578   5.036  1.2601  1.2799 -2.1595
  684SOL    HW2 4047   7.377   5.475   4.979 -1.0021 -0.9316 -2.1381
  685SOL     OW 4048   7.855   7.740   5.974 -0.2322 -0.8343  0.1858
  685SOL    HW1 4049   7.787   7.732   6.041  0.1742 -2.7462  0.4244
  685SOL    HW2 4050   7.808   7.737   5.891 -0.6529  0.6764  0.3284
  686SOL     OW 4051   7.538   3.024   5.396  0.3018 -0.1487  0.0445
  686SOL    HW1 4052   7.506   2.935   5.379  1.0430 -0.1138 -1.8157
  686SOL    HW2 4053   7.467   3.081   5.367  0.3401 -0.1197  0.0083
  687SOL     OW 4054   5.396   4.017   2.581  0.3549  0.2811 -0.5795
  687SOL    HW1 4055   5.362   3.969   2.657  1.7131 -0.2437 -0.2831
  687SOL    HW2 4056   5.450   4.087   2.619  1.0711 -0.0047 -1.0514
  688SOL     OW 4057   3.561   5.357   3.610 -0.1963  0.3903  0.3268
  688SOL    HW1 4058   3.539   5.358   3.703 -1.6259 -0.9330  0.0365
  688SOL    HW2 4059   3.656   5.352   3.608 -0.2080 -3.0271  1.8075
  689SOL     OW 4060   5.725   4.226   8.772 -0.4153  0.1382 -0.2395
  689SOL    HW1 4061   5.632   4.222   8.752 -0.2029  0.4183 -1.4222
  689SOL    HW2 4062   5.768   4.194   8.692  0.5059  0.7603 -0.0179
  690SOL     OW 4063   2.749   4.732   1.908 -0.1288  0.5251 -0.2275
  690SOL    HW1 4064   2.772   4.699   1.821 -1.2407 -0.1826 -0.2740
  690SOL    HW2 4065   2.702   4.659   1.949 -2.0945  1.8030 -0.0783
  691SOL     OW 4066   2.820   4.469   4.121  0.1096  0.3236 -0.3573
  691SOL    HW1 4067   2.901   4.518   4.108  0.3720  0.2313  0.8496
  691SOL    HW2 4068   2.821   4.445   4.213  0.3006 -2.5210 -1.0310
  692SOL     OW 4069   0.569   8.886   2.366  0.3095  0.0660  0.3468
  692SOL    HW1 4070   0.559   8.969   2.319  0.5548 -0.0212  0.1383
  692SOL    HW2 4071   0.486   8.840   2.353 -0.0622  0.5364  0.9752
  693SOL     OW 4072   7.847   7.201   6.652 -0.2121  0.3847  0.5560
  693SOL    HW1 4073   7.875   7.211   6.743  2.2807  0.2188 -0.1186
  693SOL    HW2 4074   7.822   7.108   6.645  0.8606  0.0706  0.7607
  694SOL     OW 4075   7.513   7.262   1.896  0.3514  0.3001 -0.8261
  694SOL    HW1 4076   7.578   7.301   1.838  1.0036 -1.9279 -1.6835
  694SOL    HW2 4077   7.429   7.287   1.857  0.7727 -1.0037 -2.7105
  695SOL     OW 4078   4.156   0.429   0.468  1.0853 -0.0502 -0.2529
  695SOL    HW1 4079   4.128   0.507   0.517 -1.6758 -2.3051  2.1464
  695SOL    HW2 4080   4.091   0.419   0.399  0.3577 -1.1525  0.5659
  696SOL     OW 4081   8.194   4.161   0.921  0.4900  0.0970 -0.6442
  696SOL    HW1 4082   8.157   4.083   0.963 -0.8196  0.5155 -0.9865
  696SOL    HW2 4083   8.274   4.180   0.971 -1.1548  0.7458  1.8971
  697SOL     OW 4084   7.874   8.423   4.670  0.2261 -0.1458 -0.6735
  697SOL    HW1 4085   7.911   8.367   4.739  1.4962 -0.0924 -1.2879
  697SOL    HW2 4086   7.901   8.382   4.588  0.0412  0.6297 -1.1357
  698SOL     OW 4087   0.536   4.950   7.501 -0.0165 -0.2947 -0.0820
  698SOL    HW1 4088   0.596   4.911   7.564  1.1475  2.4698  0.6580
  698SOL    HW2 4089   0.452   4.956   7.548  0.8151  1.6514  1.2694
  699SOL     OW 4090   5.798   8.630   2.676 -0.5648 -0.1348 -0.9176
  699SOL    HW1 4091   5.845   8.670   2.604  2.5703 -0.2216  0.9010
  699SOL    HW2 4092   5.836   8.543   2.685  0.2331  0.3843  1.6442
  700SOL     OW 4093   0.907   0.087   5.508 -0.2474  0.2771 -0.0845
  700SOL    HW1 4094   0.823   0.051   5.537  0.4203 -0.5240  0.9277
  700SOL    HW2 4095   0.963   0.010   5.496  0.8456  0.8762  0.9241
  701SOL     OW 4096   7.681   2.691   0.801 -0.7927  0.0016 -0.7265
  701SOL    HW1 4097   7.686   2.698   0.706 -1.9710 -0.8851 -0.8799
  701SOL    HW2 4098   7.630   2.611   0.817 -0.5331  0.0815  0.6462
  702SOL     OW 4099   1.792   4.144   8.530  0.3963 -0.1921  0.0859
  702SOL    HW1 4100   1.751   4.228   8.550  0.5763 -0.3513  1.1952
  702SOL    HW2 4101   1.886   4.164   8.528  0.4016 -0.2540 -0.2301
  703SOL     OW 4102   3.546   7.918   1.961  0.1047  0.0518  0.3117
  703SOL    HW1 4103   3.551   8.012   1.944  0.2809 -0.0722 -0.3751
  703SOL    HW2 4104   3.452   7.898   1.957 -0.0072  0.3361  1.2994
  704SOL     OW 4105   8.479   0.029   2.949  0.7873  0.3120 -0.0661
  704SOL    HW1 4106   8.507   0.093   2.883 -2.2637  0.3769 -1.4886
  704SOL    HW2 4107   8.492  -0.056   2.906 -2.5272  0.3925 -1.5601
  705SOL     OW 4108   5.552   1.415   6.902 -0.2235 -0.1902 -0.4356
  705SOL    HW1 4109   5.571   1.495   6.853  0.8878  0.8728  1.5945
  705SOL    HW2 4110   5.516   1.446   6.985 -0.2345 -1.8155  0.1946
  706SOL     OW 4111   5.000   0.886   0.710  0.1832 -0.4623 -0.6074
  706SOL    HW1 4112   4.935   0.933   0.657 -0.0109 -0.0464 -0.0136
  706SOL    HW2 4113   4.948   0.840   0.776  0.5163  0.5807  0.4259
  707SOL     OW 4114   0.151   4.979   2.419 -0.1508 -0.1705  0.1983
  707SOL    HW1 4115   0.083   5.019   2.365 -0.4998  0.2736  0.9532
  707SOL    HW2 4116   0.126   4.999   2.509  1.2380  0.4282  0.4829
  708SOL     OW 4117   2.783   1.104   7.379 -0.6149 -0.6299  0.4326
  708SOL    HW1 4118   2.873   1.117   7.410 -0.6025  1.3909 -0.3123
  708SOL    HW2 4119   2.791   1.041   7.308  0.3667  0.1410 -0.1711
  709SOL     OW 4120   0.291   6.132   5.353 -0.1442  0.0166 -0.2383
  709SOL    HW1 4121   0.355   6.088   5.297  0.1566  0.8910 -0.5919
  709SOL    HW2 4122   0.263   6.208   5.303  0.8709  1.3690  1.1625
  710SOL     OW 4123   6.862   4.177   5.663 -0.4594  0.0827  0.0095
  710SOL    HW1 4124   6.898   4.143   5.745 -0.1719  1.1982  0.3605
  710SOL    HW2 4125   6.775   4.209   5.686  0.0628  1.4634  0.1640
  711SOL     OW 4126   1.127   4.981   5.972  0.4050  0.0886 -0.1330
  711SOL    HW1 4127   1.121   4.969   5.877  0.7134 -1.7702  0.0509
  711SOL    HW2 4128   1.097   4.898   6.009  1.0141  0.5070  1.3740
  712SOL     OW 4129   1.798   8.582   6.757 -0.5044  0.2164  0.3375
  712SOL    HW1 4130   1.709   8.602   6.786 -0.0918  2.4771  0.2462
  712SOL    HW2 4131   1.841   8.668   6.752  0.1493 -0.1122 -4.6020
  713SOL     OW 4132   2.459   3.515   8.732 -0.2050 -0.0173  0.1405
  713SOL    HW1 4133   2.395   3.443   8.739 -0.6263  0.3404  0.0257
  713SOL    HW2 4134   2.537   3.482   8.776 -0.1824 -0.7843 -0.4441
  714SOL     OW 4135   5.185   4.875   1.947  0.0254  0.1091 -0.0959
  714SOL    HW1 4136   5.095   4.867   1.915  0.3907  1.3572 -1.5130
  714SOL    HW2 4137   5.234   4.809   1.898 -0.0014 -0.1871  0.2703
  715SOL     OW 4138   2.859   2.770   5.528 -0.7835 -0.1738  0.0142
  715SOL    HW1 4139   2.872   2.859   5.494  0.9652  0.7911  2.8843
  715SOL    HW2 4140   2.846   2.782   5.622 -1.4246 -2.9291  0.3568
  716SOL     OW 4141   1.740   7.438   5.406  0.0293  0.4435 -0.6435
  716SOL    HW1 4142   1.811   7.502   5.396 -1.2211  1.6919 -1.9439
  716SOL    HW2 4143   1.770   7.362   5.356  0.3784  1.0320 -1.3571
  717SOL     OW 4144   5.407   8.875   5.884 -0.0161  0.3492 -0.1174
  717SOL    HW1 4145   5.383   8.943   5.948 -0.9192  0.2994 -0.3805
  717SOL    HW2 4146   5.451   8.808   5.936  0.3964  0.8912  0.2384
  718SOL     OW 4147   3.294   3.075   5.639  0.0463  0.2870 -0.0489
  718SOL    HW1 4148   3.363   3.024   5.680  1.6332  1.9668 -0.4927
  718SOL    HW2 4149   3.224   3.077   5.704  0.6955 -0.8235  0.7263
  719SOL     OW 4150   6.043   2.675   1.657  0.2364  0.1273  0.3407
  719SOL    HW1 4151   5.978   2.605   1.656  1.1461 -0.7301 -0.2975
  719SOL    HW2 4152   6.047   2.707   1.567 -0.9000  1.7439  0.7999
  720SOL     OW 4153   4.831   8.035   4.818 -0.0042  0.4542  0.9037
  720SOL    HW1 4154   4.825   8.117   4.769  1.1218 -0.7492 -1.4082
  720SOL    HW2 4155   4.745   7.994   4.806  0.6224 -0.3621 -1.1950
  721SOL     OW 4156   0.305   3.928   7.937  0.2708  0.1071 -0.2009
  721SOL    HW1 4157   0.298   3.975   8.020 -0.2453 -2.2693  1.1611
  721SOL    HW2 4158   0.379   3.869   7.949 -0.6327 -1.2136 -0.9191
  722SOL     OW 4159   1.387   4.011   0.258  0.3598 -0.3755  0.4214
  722SOL    HW1 4160   1.372   4.009   0.353  1.4973  0.2123  0.6268
  722SOL    HW2 4161   1.477   4.042   0.249  1.1687 -2.7901 -0.7580
  723SOL     OW 4162   1.226   1.674   2.316  0.1831 -0.5285  0.6784
  723SOL    HW1 4163   1.176   1.753   2.296  0.3544 -0.5992 -0.0563
  723SOL    HW2 4164   1.307   1.683   2.266 -1.2276 -2.7645 -2.3602
  724SOL     OW 4165   4.041   5.640   1.019  0.0576 -0.5097 -0.3623
  724SOL    HW1 4166   4.006   5.555   1.047  0.3340 -0.2302  0.8704
  724SOL    HW2 4167   3.963   5.692   1.000 -0.2506 -0.0941  1.7723
  725SOL     OW 4168   8.323   8.092   7.097 -0.2988  0.0978  0.4762
  725SOL    HW1 4169   8.308   8.002   7.126 -0.4326  0.6972  2.4026
  725SOL    HW2 4170   8.368   8.133   7.171  1.3767  1.1671 -1.0543
  726SOL     OW 4171   6.050   2.731   6.555  0.6699 -0.0329 -0.2573
  726SOL    HW1 4172   6.005   2.718   6.638  1.1909  2.0706  0.4218
  726SOL    HW2 4173   6.135   2.688   6.567 -0.7345 -3.4557 -1.3216
  727SOL     OW 4174   2.950   3.142   5.634  0.1302  0.0557  0.2771
  727SOL    HW1 4175   2.989   3.089   5.565  1.4679  0.5628  0.6147
  727SOL    HW2 4176   2.887   3.084   5.676  1.2933 -1.1656  0.4091
  728SOL     OW 4177   3.401   6.299   4.746 -0.0309 -0.2963 -0.2644
  728SOL    HW1 4178   3.326   6.299   4.686  0.3545 -1.2346 -0.7630
  728SOL    HW2 4179   3.419   6.206   4.762  2.5223 -0.1937 -2.0222
  729SOL     OW 4180   8.574   2.442   8.074 -0.1737  0.1872  0.4031
  729SOL    HW1 4181   8.655   2.443   8.023 -0.7072  1.5848 -0.4770
  729SOL    HW2 4182   8.602   2.428   8.164  0.8375 -1.8676 -0.1723
  730SOL     OW 4183   2.592   6.488   6.313  0.4281 -0.0725  0.1888
  730SOL    HW1 4184   2.585   6.563   6.254  2.8315 -2.3091 -3.3515
  730SOL    HW2 4185   2.678   6.498   6.354  0.3220 -0.3947  0.4919
  731SOL     OW 4186   1.444   0.100   3.431  0.0235 -0.8370 -0.5532
  731SOL    HW1 4187   1.384   0.031   3.401  0.5780 -1.1018 -1.0722
  731SOL    HW2 4188   1.530   0.058   3.429  0.1331 -0.7459  1.0524
  732SOL     OW 4189   1.765   8.775   2.878 -0.4112 -0.0793 -0.3352
  732SOL    HW1 4190   1.717   8.730   2.947 -0.3043  1.3049  0.6794
  732SOL    HW2 4191   1.704   8.841   2.845  0.4500  1.1105  0.3702
  733SOL     OW 4192   3.538   2.563   4.199  0.8573 -0.1580  0.2174
  733SOL    HW1 4193   3.577   2.613   4.271  0.4616  1.1404 -0.4405
  733SOL    HW2 4194   3.470   2.620   4.164 -0.2610 -1.5684  0.0349
  734SOL     OW 4195   1.105   2.913   2.498 -0.1469 -0.0160  0.4039
  734SOL    HW1 4196   1.109   2.930   2.592  2.3891  0.5295  0.2583
  734SOL    HW2 4197   1.143   2.992   2.458  0.3765 -0.9303 -0.9736
  735SOL     OW 4198   5.473   4.439   0.250 -0.0164  0.1241 -0.0914
  735SOL    HW1 4199   5.534   4.440   0.176 -1.5328 -0.5035 -1.3915
  735SOL    HW2 4200   5.468   4.530   0.278  1.8471  0.1394  0.3591
  736SOL     OW 4201   0.576   4.674   3.037  0.2113 -0.0643 -0.0375
  736SOL    HW1 4202   0.510   4.619   2.994  0.6209 -0.8475  0.3247
  736SOL    HW2 4203   0.605   4.734   2.968  0.7720 -1.2188 -0.8328
  737SOL     OW 4204   3.567   5.372   5.055 -0.3833  0.0110  0.0206
  737SOL    HW1 4205   3.614   5.317   4.992  0.0499 -0.5594  0.8198
  737SOL    HW2 4206   3.577   5.326   5.138 -2.3944 -0.1410  0.2219
  738SOL     OW 4207   7.216   7.679   0.674  0.5309 -0.7377 -0.1551
  738SOL    HW1 4208   7.223   7.649   0.584 -0.8445  0.0797 -0.5726
  738SOL    HW2 4209   7.168   7.610   0.720 -2.1829  0.4524 -0.9943
  739SOL     OW 4210   8.768   5.990   1.508  0.0893 -0.3270 -0.1612
  739SOL    HW1 4211   8.705   5.920   1.493 -1.6045  1.3293 -1.1977
  739SOL    HW2 4212   8.765   6.043   1.428  2.0195  0.4140  0.2039
  740SOL     OW 4213   2.915   2.059   7.531  0.2165 -0.3933 -0.0168
  740SOL    HW1 4214   2.823   2.053   7.505 -0.2590  0.1019  1.4195
  740SOL    HW2 4215   2.933   1.974   7.571  0.5268 -0.6552 -0.7069
  741SOL     OW 4216   1.556   5.663   0.778  0.2136  0.2879  0.1606
  741SOL    HW1 4217   1.586   5.611   0.703 -0.5807  0.3879 -0.2417
  741SOL    HW2 4218   1.566   5.754   0.749  2.0967  0.4201  1.0545
  742SOL     OW 4219   2.481   6.383   2.240  0.7709 -0.4506 -0.1812
  742SOL    HW1 4220   2.386   6.394   2.245  0.8484  1.7568 -1.9925
  742SOL    HW2 4221   2.495   6.320   2.169  0.6667 -2.3272  1.3977
  743SOL     OW 4222   2.081   3.938   1.085  0.0120  0.0892 -0.8656
  743SOL    HW1 4223   2.133   3.898   1.016  1.6658  0.4133  0.1419
  743SOL    HW2 4224   2.030   4.006   1.041  0.5061 -0.1747 -1.8578
  744SOL     OW 4225   7.776   3.681   0.525 -0.2163 -0.3772 -0.1319
  744SOL    HW1 4226   7.688   3.701   0.557 -0.5595  0.5745 -1.5632
  744SOL    HW2 4227   7.825   3.763   0.537  0.2493 -0.6653 -0.0575
  745SOL     OW 4228   8.501   4.269   7.427  0.9011 -0.2805 -0.0017
  745SOL    HW1 4229   8.530   4.243   7.514  1.4938  1.2813  0.2937
  745SOL    HW2 4230   8.576   4.249   7.370  1.4825  0.9946  0.2784
  746SOL     OW 4231   1.991   4.806   2.669  0.6479  0.1467  0.1967
  746SOL    HW1 4232   2.016   4.714   2.670  1.3197  0.3024  1.7605
  746SOL    HW2 4233   2.011   4.836   2.758 -1.0110  1.4086  0.1766
  747SOL     OW 4234   3.994   1.414   4.901  0.5312 -0.1377  0.0484
  747SOL    HW1 4235   4.074   1.453   4.866 -0.1360 -0.2566 -1.7362
  747SOL    HW2 4236   3.930   1.422   4.829 -0.5965 -1.4391  0.8571
  748SOL     OW 4237   7.481   3.684   7.086  0.1406  0.3796  0.7705
  748SOL    HW1 4238   7.409   3.622   7.070  0.9994 -0.5761  0.5213
  748SOL    HW2 4239   7.451   3.736   7.160 -1.2346  0.6684  0.0564
  749SOL     OW 4240   1.738   1.943   2.818  0.0003  0.7809 -0.2636
  749SOL    HW1 4241   1.804   2.008   2.796  0.0020  0.4386 -1.3678
  749SOL    HW2 4242   1.663   1.967   2.763 -0.5641  0.7877  0.5000
  750SOL     OW 4243   1.099   2.219   8.494 -0.9008 -0.0433  0.1320
  750SOL    HW1 4244   1.024   2.246   8.441 -0.8197  0.9183  0.4914
  750SOL    HW2 4245   1.137   2.145   8.446 -0.5368  1.1052 -1.4052
  751SOL     OW 4246   5.302   3.869   3.295  0.4259 -0.0167  0.6999
  751SOL    HW1 4247   5.338   3.811   3.227 -1.9167 -0.5873 -0.1668
  751SOL    HW2 4248   5.303   3.816   3.374  0.7225 -0.3116  0.5024
  752SOL     OW 4249   3.517   5.998   3.216 -0.2678 -0.1638  0.2323
  752SOL    HW1 4250   3.559   5.917   3.189  0.4361  0.7091 -1.4234
  752SOL    HW2 4251   3.442   6.007   3.157 -1.5281 -0.5687  1.6973
  753SOL     OW 4252   3.247   4.619   7.289 -0.2485  0.3876 -0.4508
  753SOL    HW1 4253   3.189   4.676   7.338  0.2846 -1.5920  2.7866
  753SOL    HW2 4254   3.335   4.649   7.311  0.0116  0.2747 -1.2929
  754SOL     OW 4255   4.815   7.002   6.818  0.8828  0.1156  0.2317
  754SOL    HW1 4256   4.887   7.055   6.784  1.8475  0.4873  2.6769
  754SOL    HW2 4257   4.736   7.044   6.784  1.7432  0.8886 -0.8704
  755SOL     OW 4258   3.434   6.878   4.333  0.0476 -0.2099 -0.7965
  755SOL    HW1 4259   3.508   6.819   4.316  1.3229  0.6831  1.2613
  755SOL    HW2 4260   3.460   6.960   4.291  0.0151 -0.0401 -0.4866
  756SOL     OW 4261   5.905   6.262   6.742 -0.0712 -0.1140  0.3042
  756SOL    HW1 4262   5.943   6.175   6.729  0.9327  0.4245 -0.5043
  756SOL    HW2 4263   5.897   6.298   6.654 -0.7742  0.4982  0.6106
  757SOL     OW 4264   1.467   3.294   2.769 -0.3126 -0.5867  0.1791
  757SOL    HW1 4265   1.381   3.296   2.726 -1.0861 -1.3255  1.6336
  757SOL    HW2 4266   1.447   3.291   2.862  1.3182  1.7302  0.6870
  758SOL     OW 4267   2.467   5.283   2.951 -0.1028 -0.3831  0.0461
  758SOL    HW1 4268   2.446   5.354   2.890 -0.3366 -1.0352 -0.6460
  758SOL    HW2 4269   2.462   5.324   3.037  1.8781  0.9940 -0.4112
  759SOL     OW 4270   4.942   6.365   6.717  0.3803 -0.2411 -0.2248
  759SOL    HW1 4271   4.870   6.414   6.756  2.5699  1.1613  2.4713
  759SOL    HW2 4272   4.938   6.279   6.759  0.7682  0.1546  0.6622
  760SOL     OW 4273   3.777   1.423   2.054 -0.1816  0.1255 -0.0662
  760SOL    HW1 4274   3.845   1.464   2.108 -0.8036 -1.1731  1.8206
  760SOL    HW2 4275   3.825   1.373   1.988  0.6558  0.3954  0.3246
  761SOL     OW 4276   1.625   6.106   3.201  0.2065 -0.1260 -0.1451
  761SOL    HW1 4277   1.705   6.084   3.248  0.3957  1.0511  0.1128
  761SOL    HW2 4278   1.633   6.059   3.118  0.0835 -1.8382  0.7623
  762SOL     OW 4279   5.128   0.240   4.406 -0.0492 -0.0216  0.3719
  762SOL    HW1 4280   5.083   0.202   4.331  1.6552 -1.1079 -0.1691
  762SOL    HW2 4281   5.179   0.312   4.369  0.9456 -0.6798  0.4113
  763SOL     OW 4282   5.876   3.147   6.976  0.4583 -0.2966 -0.1016
  763SOL    HW1 4283   5.918   3.233   6.978  1.5436 -0.7922  2.0636
  763SOL    HW2 4284   5.949   3.085   6.980 -0.3411 -1.2945 -0.6240
  764SOL     OW 4285   1.573   8.432   4.433 -0.0240  0.6218 -0.2295
  764SOL    HW1 4286   1.613   8.476   4.358 -0.3009  0.6252 -0.3776
  764SOL    HW2 4287   1.511   8.496   4.468 -0.3462  0.3893 -0.3780
  765SOL     OW 4288   4.522   1.245   6.129 -0.0140 -0.2478  0.6171
  765SOL    HW1 4289   4.609   1.230   6.167 -0.2966  0.2075  1.4500
  765SOL    HW2 4290   4.497   1.332   6.159  0.0965  0.4851 -1.2997
  766SOL     OW 4291   3.581   2.344   6.884  0.1844 -0.1460 -0.2887
  766SOL    HW1 4292   3.643   2.340   6.811 -1.1513 -1.0506 -1.4269
  766SOL    HW2 4293   3.568   2.437   6.900  0.2571  0.0700 -1.4233
  767SOL     OW 4294   8.277   1.907   3.242 -0.0509  0.2553  0.2337
  767SOL    HW1 4295   8.372   1.914   3.233  0.1239  0.6471  2.0344
  767SOL    HW2 4296   8.255   1.824   3.199  0.9540  0.6058 -1.0303
  768SOL     OW 4297   8.099   4.622   3.408 -0.0825 -0.5397 -0.2385
  768SOL    HW1 4298   8.164   4.552   3.411  0.2785 -0.2491 -0.9352
  768SOL    HW2 4299   8.151   4.702   3.394 -0.1275  0.3883  3.7630
  769SOL     OW 4300   2.990   6.110   4.735  0.0741 -0.7667  0.1010
  769SOL    HW1 4301   3.038   6.104   4.818  0.4778 -1.3044 -0.1680
  769SOL    HW2 4302   2.919   6.172   4.753  0.5313 -0.3947  0.6657
  770SOL     OW 4303   0.412   0.137   1.568  0.3669 -0.1236 -0.3713
  770SOL    HW1 4304   0.485   0.193   1.595 -1.8921  2.3549  1.1574
  770SOL    HW2 4305   0.368   0.115   1.650 -1.3210 -0.4868 -1.3342
  771SOL     OW 4306   0.168   2.569   4.858 -0.2820  0.2006  0.7306
  771SOL    HW1 4307   0.125   2.503   4.805  0.9176  0.8015 -1.0823
  771SOL    HW2 4308   0.256   2.534   4.873 -0.7229 -0.1965  2.8631
  772SOL     OW 4309   0.628   4.999   1.363  0.3331  0.7630  0.2356
  772SOL    HW1 4310   0.636   5.074   1.305  0.6691  1.4454  1.1294
  772SOL    HW2 4311   0.567   5.027   1.431 -1.5479 -0.6884 -0.7662
  773SOL     OW 4312   2.436   0.909   5.517 -0.4449  0.1906  0.2472
  773SOL    HW1 4313   2.469   0.994   5.490 -0.2176 -0.0336 -0.1734
  773SOL    HW2 4314   2.394   0.873   5.439  1.4263 -1.0604 -0.2540
  774SOL     OW 4315   0.263   5.106   1.765 -0.0619 -0.1111 -0.5437
  774SOL    HW1 4316   0.188   5.117   1.706 -1.0272 -1.8273  0.2570
  774SOL    HW2 4317   0.240   5.159   1.841 -0.0936 -0.0016 -0.6290
  775SOL     OW 4318   8.726   7.649   1.496 -0.5124  0.0273 -0.2995
  775SOL    HW1 4319   8.637   7.616   1.492 -0.3496 -0.3931 -0.5472
  775SOL    HW2 4320   8.720   7.739   1.463 -0.5446 -0.6356 -2.2087
  776SOL     OW 4321   2.693   2.815   8.789 -0.6495  0.2094 -0.4940
  776SOL    HW1 4322   2.727   2.760   8.859 -2.4400 -1.0438 -0.5568
  776SOL    HW2 4323   2.769   2.867   8.760  0.9276 -1.6833  0.0569
  777SOL     OW 4324   3.977   0.869   3.517  0.5247 -0.3008  0.2805
  777SOL    HW1 4325   3.970   0.964   3.517 -0.1365 -0.3229 -0.8103
  777SOL    HW2 4326   4.070   0.851   3.504  0.8322  0.1750  1.7349
  778SOL     OW 4327   8.749   0.169   8.345 -0.6441 -0.1999 -0.8460
  778SOL    HW1 4328   8.774   0.141   8.257  0.3618  0.9968 -0.9641
  778SOL    HW2 4329   8.655   0.186   8.339 -0.4363  0.6489 -1.9167
  779SOL     OW 4330   5.027   4.483   0.054 -0.0710 -0.1463  0.3571
  779SOL    HW1 4331   5.045   4.571   0.022 -0.5277 -0.6281 -1.2757
  779SOL    HW2 4332   5.112   4.452   0.087 -0.2026  1.3992  2.3087
  780SOL     OW 4333   7.166   0.047   0.796 -0.2764 -0.9496 -0.3478
  780SOL    HW1 4334   7.088  -0.009   0.791 -0.7399 -0.2080 -1.9165
  780SOL    HW2 4335   7.212   0.016   0.874 -0.4360 -3.6096 -1.2017
  781SOL     OW 4336   1.029   3.958   4.796  0.5985  0.0402  0.4398
  781SOL    HW1 4337   1.010   4.018   4.723  2.8736  0.5563  0.1997
  781SOL    HW2 4338   0.943   3.924   4.822 -0.3592  0.3561 -2.0316
  782SOL     OW 4339   6.362   7.501   2.831 -0.8253  0.4698 -0.0250
  782SOL    HW1 4340   6.372   7.480   2.924 -0.7440 -3.4819 -0.7825
  782SOL    HW2 4341   6.274   7.472   2.809 -0.9996  1.7550 -1.1665
  783SOL     OW 4342   3.539   4.203   5.643 -0.1338  0.5354 -0.2253
  783SOL    HW1 4343   3.613   4.246   5.684 -0.8422  0.5004  1.1622
  783SOL    HW2 4344   3.538   4.236   5.553  0.9660  1.2798  0.0224
  784SOL     OW 4345   1.689   3.317   4.874  0.0472 -0.3015  0.4259
  784SOL    HW1 4346   1.664   3.291   4.963  0.5634 -1.0608  0.3525
  784SOL    HW2 4347   1.781   3.293   4.867 -0.2214 -1.0732 -0.6204
  785SOL     OW 4348   7.124   0.585   1.271  0.1302  0.2063 -0.4718
  785SOL    HW1 4349   7.042   0.591   1.222 -0.4319 -2.1251  0.0598
  785SOL    HW2 4350   7.106   0.628   1.354 -0.1107  0.8809 -0.8683
  786SOL     OW 4351   4.101   1.247   0.764 -0.1997  0.2334 -0.1043
  786SOL    HW1 4352   4.133   1.158   0.753 -0.9188  0.1650 -1.9569
  786SOL    HW2 4353   4.006   1.239   0.757 -0.2879  1.1263 -0.0176
  787SOL     OW 4354   0.374   5.578   2.326 -0.0296 -0.0029 -0.5919
  787SOL    HW1 4355   0.459   5.596   2.286 -0.1296  0.6116 -0.5275
  787SOL    HW2 4356   0.321   5.544   2.254  0.2864 -0.4520 -0.6179
  788SOL     OW 4357   7.713   1.042   3.383  0.1094  0.5659 -0.2855
  788SOL    HW1 4358   7.655   1.062   3.456 -0.1477 -0.8946 -0.0534
  788SOL    HW2 4359   7.658   1.052   3.305  0.9135  4.2508 -0.5795
  789SOL     OW 4360   1.321   8.754   0.400  0.2730  0.4993  0.3989
  789SOL    HW1 4361   1.262   8.679   0.395 -0.4636  0.5766  4.3078
  789SOL    HW2 4362   1.284   8.819   0.341 -1.0412 -1.0089 -0.4938
  790SOL     OW 4363   7.458   5.628   2.697 -0.2055  0.3792 -0.4696
  790SOL    HW1 4364   7.514   5.549   2.695 -0.3368  0.2807 -2.5482
  790SOL    HW2 4365   7.510   5.692   2.746  0.9723 -0.2637 -0.8197
  791SOL     OW 4366   6.438   6.138   3.277 -0.4376 -0.2035 -0.0872
  791SOL    HW1 4367   6.404   6.207   3.220 -1.2659 -0.6449 -0.1484
  791SOL    HW2 4368   6.484   6.078   3.218  3.6579  2.1778  0.3801
  792SOL     OW 4369   8.437   1.371   5.498 -0.3274 -0.0621  0.3436
  792SOL    HW1 4370   8.498   1.434   5.459  0.6088 -1.6249 -0.8332
  792SOL    HW2 4371   8.392   1.421   5.566  1.1387  1.5738  0.1977
  793SOL     OW 4372   7.246   5.148   3.871 -0.5295  0.2755 -0.2068
  793SOL    HW1 4373   7.202   5.118   3.791 -1.2643  0.5777  0.0713
  793SOL    HW2 4374   7.307   5.215   3.841 -1.1880  0.7724 -0.4632
  794SOL     OW 4375   3.281   5.093   0.328  0.1764 -0.3153  0.1689
  794SOL    HW1 4376   3.338   5.055   0.261 -0.1154  2.0210 -1.5431
  794SOL    HW2 4377   3.340   5.144   0.384  0.0014  0.8377 -0.6652
  795SOL     OW 4378   8.165   4.886   3.410  0.4295 -0.3709 -0.7885
  795SOL    HW1 4379   8.145   4.947   3.339  0.5649 -1.1988 -1.5567
  795SOL    HW2 4380   8.260   4.872   3.405  0.3769 -0.7710 -0.7299
  796SOL     OW 4381   0.574   8.149   2.711  0.0635 -0.5094  0.2314
  796SOL    HW1 4382   0.666   8.175   2.704  0.1159 -1.0981 -3.9948
  796SOL    HW2 4383   0.540   8.202   2.783  3.3918  0.6031  1.2004
  797SOL     OW 4384   1.456   0.913   1.481 -0.7138 -0.3626  0.1203
  797SOL    HW1 4385   1.512   0.938   1.407 -0.2685 -1.5636  0.0411
  797SOL    HW2 4386   1.372   0.891   1.440 -1.3210  1.5236  0.2473
  798SOL     OW 4387   5.331   3.081   4.808 -0.0251  0.4964  0.1096
  798SOL    HW1 4388   5.312   2.997   4.850 -0.7627  0.7029  0.2027
  798SOL    HW2 4389   5.247   3.109   4.772  0.0380  1.5645  0.7494
  799SOL     OW 4390   1.548   8.609   7.634  0.1635  0.2134 -0.5621
  799SOL    HW1 4391   1.498   8.659   7.698 -0.6478 -1.2102 -0.0581
  799SOL    HW2 4392   1.637   8.644   7.641 -0.4948  2.0190 -0.6960
  800SOL     OW 4393   2.582   0.179   7.584 -0.1755  0.3455  0.6912
  800SOL    HW1 4394   2.535   0.126   7.649 -1.1609  0.3006 -0.0375
  800SOL    HW2 4395   2.593   0.120   7.509  0.4132  0.5852  0.5893
  801SOL     OW 4396   1.951   2.158   5.738  0.0036  0.1048  0.2722
  801SOL    HW1 4397   2.024   2.199   5.784  0.7539 -0.1448 -0.6695
  801SOL    HW2 4398   1.976   2.160   5.646  0.1392 -2.5225  0.1638
  802SOL     OW 4399   7.340   0.328   5.865 -0.1602 -0.2482  0.2138
  802SOL    HW1 4400   7.315   0.267   5.935  1.6400  0.0549  1.1609
  802SOL    HW2 4401   7.291   0.408   5.884 -0.3809 -0.4690  0.5868
  803SOL     OW 4402   6.398   7.875   0.506 -0.3106  0.3672 -0.3351
  803SOL    HW1 4403   6.336   7.883   0.578  0.9486 -0.2868  0.8681
  803SOL    HW2 4404   6.429   7.785   0.511  2.7789  1.3801  0.8770
  804SOL     OW 4405   6.273   6.654   0.587 -0.3625 -0.4680 -0.0634
  804SOL    HW1 4406   6.269   6.620   0.498  0.3790  2.3781 -1.3211
  804SOL    HW2 4407   6.181   6.659   0.615 -0.8585  0.9314 -1.7245
  805SOL     OW 4408   6.234   2.708   2.199 -0.5450  0.0911 -0.4673
  805SOL    HW1 4409   6.305   2.656   2.161 -1.4843 -1.0258 -0.7371
  805SOL    HW2 4410   6.177   2.644   2.241 -1.2947  0.9914 -0.0721
  806SOL     OW 4411   2.037   7.170   3.933  0.1393 -0.2610  0.1266
  806SOL    HW1 4412   1.957   7.212   3.966  0.9569  1.5277 -0.0150
  806SOL    HW2 4413   2.103   7.240   3.936  1.5537 -1.5270 -0.3126
  807SOL     OW 4414   1.923   1.151   0.096 -0.2263 -0.2916  0.4338
  807SOL    HW1 4415   1.881   1.236   0.101  0.8585  0.3546 -0.7486
  807SOL    HW2 4416   2.000   1.165   0.040  0.2652 -1.9247  0.6285
  808SOL     OW 4417   8.556   0.769   2.033  0.7530 -0.0187  0.2946
  808SOL    HW1 4418   8.518   0.710   1.968  0.3881 -0.8138  1.2087
  808SOL    HW2 4419   8.497   0.763   2.108  1.6178  0.2363  1.0112
  809SOL     OW 4420   8.513   6.681   7.724 -0.2701 -0.0318  0.6334
  809SOL    HW1 4421   8.572   6.681   7.648 -0.4956  1.4095  0.4423
  809SOL    HW2 4422   8.555   6.739   7.787 -1.6173  1.3172  0.3566
  810SOL     OW 4423   2.216   4.428   8.406  0.5186  0.1377 -0.6408
  810SOL    HW1 4424   2.283   4.496   8.403 -1.2324  2.0448  0.9937
  810SOL    HW2 4425   2.167   4.440   8.325 -1.2597  2.5396  0.6764
  811SOL     OW 4426   8.465   3.802   7.430 -0.2014  0.1433 -0.2277
  811SOL    HW1 4427   8.552   3.765   7.410 -0.7349 -1.3290  0.0708
  811SOL    HW2 4428   8.426   3.817   7.344  0.0716  0.1428 -0.3542
  812SOL     OW 4429   6.380   7.593   0.639  0.0025 -0.0788 -0.0253
  812SOL    HW1 4430   6.302   7.553   0.677 -0.0757  1.5467  1.6946
  812SOL    HW2 4431   6.389   7.553   0.553 -1.6598 -1.6400  0.4769
  813SOL     OW 4432   0.553   6.347   0.902  0.3227  0.0721 -0.1859
  813SOL    HW1 4433   0.468   6.390   0.910  0.2355 -0.3214  1.4275
  813SOL    HW2 4434   0.604   6.404   0.844  0.0801  2.1633  1.5268
  814SOL     OW 4435   4.805   8.186   3.605 -0.9586 -0.1370  0.7479
  814SOL    HW1 4436   4.865   8.120   3.638  0.4268  0.9961  0.5899
  814SOL    HW2 4437   4.723   8.139   3.591 -0.5357 -1.4232  2.2953
  815SOL     OW 4438   0.033   5.461   7.868 -0.4169 -0.6393  0.2264
  815SOL    HW1 4439   0.129   5.461   7.864 -0.3698  0.7909  0.6351
  815SOL    HW2 4440   0.012   5.429   7.956 -0.3140 -1.1039  0.0800
  816SOL     OW 4441   2.310   3.686   1.721 -0.5908 -0.3511 -0.7302
  816SOL    HW1 4442   2.388   3.712   1.672  0.7073 -0.8113  0.9578
  816SOL    HW2 4443   2.249   3.758   1.709  0.8593  0.9712 -0.5184
  817SOL     OW 4444   0.727   1.346   2.369 -0.5581 -0.3411  0.0327
  817SOL    HW1 4445   0.758   1.396   2.444 -0.7968 -0.1811  0.0269
  817SOL    HW2 4446   0.804   1.337   2.313 -0.1727 -1.1613  0.6711
  818SOL     OW 4447   5.860   2.402   8.391  0.3439  0.1035  0.0748
  818SOL    HW1 4448   5.927   2.393   8.323 -0.0930 -0.5395 -0.2835
  818SOL    HW2 4449   5.781   2.364   8.352 -0.3845  1.3433  0.2844
  819SOL     OW 4450   3.130   7.809   5.894  0.4614  0.1569  0.1465
  819SOL    HW1 4451   3.086   7.758   5.962 -0.8751  0.7963 -0.2131
  819SOL    HW2 4452   3.118   7.757   5.814 -0.4706  0.7742 -0.1265
  820SOL     OW 4453   7.869   1.597   3.277  0.1956  0.0332  0.1226
  820SOL    HW1 4454   7.881   1.508   3.309  0.5468  0.4521  1.2104
  820SOL    HW2 4455   7.929   1.604   3.203  0.5810 -0.4706  0.3795
  821SOL     OW 4456   2.419   6.118   1.352  0.0631 -0.3708  0.4735
  821SOL    HW1 4457   2.505   6.075   1.357  0.1865 -0.1832  0.0128
  821SOL    HW2 4458   2.357   6.048   1.372  0.3022 -0.6046  0.4090
  822SOL     OW 4459   4.693   8.637   3.207 -0.0472  0.0485 -0.6505
  822SOL    HW1 4460   4.765   8.632   3.270  1.7602 -0.4502 -2.6463
  822SOL    HW2 4461   4.615   8.653   3.261  1.6440  1.5595  1.5339
  823SOL     OW 4462   6.515   6.844   3.614 -0.5638  0.5099 -0.3664
  823SOL    HW1 4463   6.443   6.846   3.677 -0.4063  0.1397 -0.1781
  823SOL    HW2 4464   6.593   6.832   3.667 -0.2097  2.2458 -0.4446
  824SOL     OW 4465   4.778   8.311   6.642  0.7999  1.0888  0.0479
  824SOL    HW1 4466   4.783   8.232   6.694  1.1810  1.0807 -0.0009
  824SOL    HW2 4467   4.699   8.300   6.589  1.4874  0.2147 -0.8220
  825SOL     OW 4468   4.925   8.094   2.571 -0.0922  0.8431  0.2350
  825SOL    HW1 4469   5.007   8.076   2.618 -0.0317  0.5571  0.0269
  825SOL    HW2 4470   4.903   8.184   2.593  0.2391  0.8943  0.3577
  826SOL     OW 4471   1.209   4.939   7.225 -0.0435  0.1787  0.5329
  826SOL    HW1 4472   1.178   4.863   7.275  0.5114  0.3820  1.2188
  826SOL    HW2 4473   1.134   4.998   7.221  0.1049  0.4791  1.7843
  827SOL     OW 4474   8.505   8.559   7.560 -0.4533  0.5899  0.2335
  827SOL    HW1 4475   8.453   8.520   7.630 -0.7768  0.6133  0.0084
  827SOL    HW2 4476   8.586   8.507   7.559 -0.3456  0.7469  0.7836
  828SOL     OW 4477   0.296   2.550   1.969 -0.5986 -0.0425  0.7241
  828SOL    HW1 4478   0.280   2.643   1.952  1.9735  0.2383 -0.5786
  828SOL    HW2 4479   0.353   2.550   2.046 -0.4354 -0.5442  0.6027
  829SOL     OW 4480   8.502   4.420   6.959 -0.5407  0.3194 -0.4682
  829SOL    HW1 4481   8.466   4.337   6.929  0.5259  0.4164 -2.1210
  829SOL    HW2 4482   8.560   4.449   6.888  1.2525  1.1281  1.2203
  830SOL     OW 4483   6.446   1.269   1.481  0.3288  0.5433 -0.2238
  830SOL    HW1 4484   6.401   1.299   1.402  0.5809 -2.0816 -1.4578
  830SOL    HW2 4485   6.487   1.348   1.516 -1.7952  2.2523 -1.3263
  831SOL     OW 4486   2.853   6.937   6.310 -0.2419 -0.3211 -0.4674
  831SOL    HW1 4487   2.853   6.999   6.237  3.1699  0.0683 -0.3347
  831SOL    HW2 4488   2.864   6.851   6.269 -0.2098 -0.2969 -0.5099
  832SOL     OW 4489   0.931   4.165   8.888  0.0758  0.2260  0.4585
  832SOL    HW1 4490   0.891   4.125   8.810  3.2505  1.5451 -2.0420
  832SOL    HW2 4491   0.993   4.099   8.919  1.2769  0.9847 -0.2694
  833SOL     OW 4492   5.105   5.551   7.888 -0.6439 -0.2826 -0.1463
  833SOL    HW1 4493   5.027   5.555   7.943 -0.5515 -0.1359 -0.0239
  833SOL    HW2 4494   5.178   5.554   7.949 -0.4891  2.5373 -0.3439
  834SOL     OW 4495   1.080   1.881   6.353  0.4513 -0.3341  0.5160
  834SOL    HW1 4496   1.001   1.826   6.349  0.7299 -0.6960 -0.1756
  834SOL    HW2 4497   1.088   1.905   6.445 -0.5189 -0.2230  0.5808
  835SOL     OW 4498   6.036   4.983   7.207  0.1170 -0.4159  0.0818
  835SOL    HW1 4499   6.061   5.072   7.230 -0.7718 -0.0302 -0.3899
  835SOL    HW2 4500   5.949   4.992   7.168 -0.5053 -1.6289  1.1349
  836SOL     OW 4501   7.642   3.726   1.593 -0.3120 -0.2972  0.0776
  836SOL    HW1 4502   7.610   3.658   1.653 -0.8948 -0.9793 -0.9848
  836SOL    HW2 4503   7.582   3.800   1.608 -0.9544 -0.7440 -0.2141
  837SOL     OW 4504   1.010   2.090   7.209  0.2011 -0.0234  0.0315
  837SOL    HW1 4505   1.042   2.002   7.188 -1.8236 -0.6332 -0.7716
  837SOL    HW2 4506   1.076   2.149   7.171  0.1075 -1.1901 -2.0816
  838SOL     OW 4507   2.874   5.599   0.080 -0.3965 -0.2518 -0.4316
  838SOL    HW1 4508   2.782   5.612   0.102 -0.0893 -1.1287  1.6754
  838SOL    HW2 4509   2.916   5.682   0.104 -0.3948 -0.4689  0.3574
  839SOL     OW 4510   0.470   4.328   3.177 -0.3884 -0.1655 -0.3221
  839SOL    HW1 4511   0.465   4.421   3.200  0.0721 -0.5954  1.6819
  839SOL    HW2 4512   0.379   4.301   3.166 -0.6864  0.0308  1.3846
  840SOL     OW 4513   6.075   4.934   3.017  0.2263 -0.3726 -0.5581
  840SOL    HW1 4514   6.077   4.977   3.102  0.5607  1.6303 -1.5124
  840SOL    HW2 4515   6.019   4.858   3.029 -0.4555  0.3718  1.2262
  841SOL     OW 4516   5.590   7.178   7.609  0.0799  0.4395  0.5106
  841SOL    HW1 4517   5.602   7.187   7.514 -0.6611 -2.3333  0.0531
  841SOL    HW2 4518   5.659   7.232   7.647  1.5931  0.1798 -1.6387
  842SOL     OW 4519   3.845   5.971   5.956  0.5241 -0.1454 -0.2775
  842SOL    HW1 4520   3.908   6.033   5.919 -1.0700  1.3707 -0.6139
  842SOL    HW2 4521   3.793   5.941   5.881 -2.4801  2.6560  0.4084
  843SOL     OW 4522   5.309   1.733   6.600  0.1624  0.0241 -0.0951
  843SOL    HW1 4523   5.323   1.827   6.602  2.0922 -0.2135  0.2385
  843SOL    HW2 4524   5.346   1.705   6.515 -2.0762 -0.2464 -1.0449
  844SOL     OW 4525   0.501   1.069   4.250  0.3405  0.0808 -0.0994
  844SOL    HW1 4526   0.483   1.040   4.161  0.2507 -2.3466  0.6493
  844SOL    HW2 4527   0.420   1.051   4.298  0.0809  2.1671  0.3479
  845SOL     OW 4528   7.391   4.263   3.781  0.1930 -0.0550  0.6424
  845SOL    HW1 4529   7.427   4.196   3.839  2.5141 -0.0845 -0.7415
  845SOL    HW2 4530   7.325   4.307   3.835 -0.0610 -2.1577  2.2123
  846SOL     OW 4531   4.361   1.532   6.933 -0.1047  0.0407  0.3582
  846SOL    HW1 4532   4.411   1.450   6.935  0.0163  0.1196  0.7035
  846SOL    HW2 4533   4.362   1.562   7.024 -0.8093  0.0255  0.3746
  847SOL     OW 4534   6.947   0.858   3.901 -0.2034  0.3635  0.2513
  847SOL    HW1 4535   6.912   0.809   3.975  0.7554  0.5167  0.8330
  847SOL    HW2 4536   7.036   0.823   3.890 -0.8110 -0.6617 -1.7596
  848SOL     OW 4537   6.761   3.298   0.651  0.5648  0.2591  0.2131
  848SOL    HW1 4538   6.756   3.361   0.724  0.8295  2.8929 -1.8814
  848SOL    HW2 4539   6.849   3.311   0.615  0.6281 -1.3850 -0.2754
  849SOL     OW 4540   4.426   2.337   3.290 -0.1004  0.0637  0.3421
  849SOL    HW1 4541   4.413   2.356   3.383 -2.5744  1.1501 -0.1412
  849SOL    HW2 4542   4.385   2.252   3.276  1.7580 -0.9109  0.5061
  850SOL     OW 4543   5.086   0.379   1.863  0.1442 -0.3496 -0.4344
  850SOL    HW1 4544   5.136   0.409   1.786 -0.0270  2.2888  0.3896
  850SOL    HW2 4545   5.001   0.422   1.854  0.3108  0.4483  1.4965
  851SOL     OW 4546   8.833   2.224   2.396  0.0731  0.1043  0.3767
  851SOL    HW1 4547   8.806   2.186   2.312 -0.9614  0.3832  0.5666
  851SOL    HW2 4548   8.772   2.186   2.460  1.4640 -0.8683  1.1761
  852SOL     OW 4549   4.846   0.630   6.345  0.0805 -0.1828  0.6773
  852SOL    HW1 4550   4.821   0.547   6.385  1.0425 -1.0324 -0.4051
  852SOL    HW2 4551   4.773   0.653   6.288  0.3993 -1.0242 -0.0886
  853SOL     OW 4552   1.695   1.285   4.436 -0.3353  0.3218  0.4202
  853SOL    HW1 4553   1.630   1.297   4.367  0.5852 -2.3790 -1.0586
  853SOL    HW2 4554   1.762   1.229   4.396  2.3571  2.0294  2.2108
  854SOL     OW 4555   0.101   1.446   7.116  0.2969 -0.2273 -0.4626
  854SOL    HW1 4556   0.105   1.351   7.128  1.0337 -0.2987 -1.1729
  854SOL    HW2 4557   0.027   1.474   7.170  1.5607 -0.8844  1.7636
  855SOL     OW 4558   6.308   6.875   8.095 -0.2068 -0.4567 -0.2898
  855SOL    HW1 4559   6.310   6.795   8.042 -3.9154 -1.6734  1.0551
  855SOL    HW2 4560   6.245   6.932   8.051 -0.2412  0.2424  0.6367
  856SOL     OW 4561   5.540   4.177   4.059  0.1718  0.5043 -0.9384
  856SOL    HW1 4562   5.467   4.124   4.026 -0.0853 -1.6384  2.5022
  856SOL    HW2 4563   5.605   4.112   4.087  1.9388  2.2474 -0.8416
  857SOL     OW 4564   5.893   3.657   8.628 -0.8339  0.0222  0.4227
  857SOL    HW1 4565   5.887   3.735   8.572 -1.3263  0.2479  0.7919
  857SOL    HW2 4566   5.822   3.667   8.691 -0.9720 -0.7838  0.4029
  858SOL     OW 4567   5.179   5.804   3.783 -0.1393 -0.3936  0.0190
  858SOL    HW1 4568   5.178   5.815   3.688 -1.1741  0.7980  0.1417
  858SOL    HW2 4569   5.217   5.885   3.817  0.3959 -0.8842  0.6140
  859SOL     OW 4570   4.748   2.044   3.806  0.3964 -0.8897 -0.1903
  859SOL    HW1 4571   4.705   2.038   3.891 -0.5245 -1.2697 -0.6668
  859SOL    HW2 4572   4.676   2.057   3.744  1.1006 -0.0152 -0.8528
  860SOL     OW 4573   3.814   6.187   8.879 -0.0535 -0.1129 -0.0676
  860SOL    HW1 4574   3.751   6.221   8.942 -0.2010 -2.4298  1.1464
  860SOL    HW2 4575   3.761   6.165   8.802 -0.2597  0.5421 -0.1123
  861SOL     OW 4576   4.762   7.576   7.014 -0.4979 -0.3972 -0.3224
  861SOL    HW1 4577   4.763   7.586   6.919  1.7378  1.3569 -0.1880
  861SOL    HW2 4578   4.704   7.646   7.045  1.4253  1.2315 -0.2731
  862SOL     OW 4579   8.124   4.102   3.113  0.2226 -0.2262 -0.4937
  862SOL    HW1 4580   8.142   4.107   3.208 -0.2299 -0.5625 -0.3910
  862SOL    HW2 4581   8.203   4.139   3.073  0.6293 -0.5254  0.0012
  863SOL     OW 4582   3.937   3.582   4.795  0.3626  0.0594  0.6384
  863SOL    HW1 4583   3.896   3.555   4.877  2.1954 -1.0271  1.2633
  863SOL    HW2 4584   4.022   3.537   4.795  0.5122  0.2358 -1.7379
  864SOL     OW 4585   4.306   1.405   8.244  0.4394 -0.1070  0.5610
  864SOL    HW1 4586   4.327   1.450   8.162  1.7405 -0.2568  0.7995
  864SOL    HW2 4587   4.384   1.414   8.297 -0.2620 -0.3337  1.6605
  865SOL     OW 4588   6.772   2.847   1.895 -0.2909 -0.1393  0.7205
  865SOL    HW1 4589   6.847   2.858   1.953  1.3956  0.6126 -1.4651
  865SOL    HW2 4590   6.803   2.786   1.828 -1.8275 -0.2355  0.0557
  866SOL     OW 4591   5.372   0.186   4.601  0.0078  0.1027  0.1529
  866SOL    HW1 4592   5.312   0.146   4.664  1.1991  0.9537  1.9291
  866SOL    HW2 4593   5.318   0.205   4.525 -1.9045  0.5416  1.5397
  867SOL     OW 4594   3.423   5.037   3.585  0.2560  0.1984 -0.4531
  867SOL    HW1 4595   3.446   5.128   3.599 -0.5943  0.3071  0.3705
  867SOL    HW2 4596   3.498   4.999   3.539  0.1907  1.5503 -1.7368
  868SOL     OW 4597   0.357   5.189   3.516  0.0562 -0.0919 -0.1461
  868SOL    HW1 4598   0.401   5.105   3.535  0.7628  0.2511 -0.2415
  868SOL    HW2 4599   0.423   5.255   3.537 -0.3800  0.4276 -0.4207
  869SOL     OW 4600   4.851   7.625   7.302  0.3659 -0.1952  0.4631
  869SOL    HW1 4601   4.903   7.667   7.233  1.0744 -1.6631  0.0716
  869SOL    HW2 4602   4.900   7.546   7.324 -2.0753 -2.0961 -0.5094
  870SOL     OW 4603   2.802   2.653   3.508 -0.1211 -0.3126  0.2318
  870SOL    HW1 4604   2.764   2.644   3.596  0.6972 -0.6233  0.5703
  870SOL    HW2 4605   2.896   2.642   3.522 -0.0138 -0.7078 -0.7394
  871SOL     OW 4606   0.176   2.559   0.987  0.2651 -0.3281 -0.0674
  871SOL    HW1 4607   0.145   2.540   1.075 -0.0215  2.5872  0.5581
  871SOL    HW2 4608   0.203   2.474   0.952 -2.9025 -2.1309  1.4832
  872SOL     OW 4609   1.317   1.990   3.663  0.4836 -0.5619 -0.1060
  872SOL    HW1 4610   1.317   2.082   3.637  1.1701 -0.0884  1.4580
  872SOL    HW2 4611   1.394   1.981   3.720 -0.9918 -1.4355  1.8937
  873SOL     OW 4612   6.221   8.478   8.594 -0.4360  0.0451  0.0464
  873SOL    HW1 4613   6.178   8.394   8.610  0.3288 -0.7400 -1.7168
  873SOL    HW2 4614   6.255   8.470   8.505  0.0031  2.0926 -0.0046
  874SOL     OW 4615   7.033   3.343   6.859 -0.0849  0.0872 -0.7762
  874SOL    HW1 4616   7.114   3.394   6.851  1.4859 -2.4837 -2.6395
  874SOL    HW2 4617   6.976   3.398   6.912  1.6419  3.5285 -2.1337
  875SOL     OW 4618   7.673   7.823   2.271 -0.5326  0.1035  0.5608
  875SOL    HW1 4619   7.626   7.783   2.344 -1.1894 -1.3658 -0.6253
  875SOL    HW2 4620   7.711   7.749   2.224 -1.6856  0.8333 -1.6483
  876SOL     OW 4621   3.158   3.114   0.878 -0.0204 -0.3127 -0.2425
  876SOL    HW1 4622   3.102   3.047   0.918 -0.3207 -0.0913 -0.2852
  876SOL    HW2 4623   3.213   3.146   0.950 -0.9220  0.4616  0.1387
  877SOL     OW 4624   7.391   2.914   6.441  0.5421  0.1880 -0.0843
  877SOL    HW1 4625   7.356   2.981   6.382  1.1266 -0.8150 -1.6480
  877SOL    HW2 4626   7.321   2.850   6.449 -1.1530  2.1499  3.6831
  878SOL     OW 4627   8.869   0.710   5.711  0.5075  0.0323 -0.5529
  878SOL    HW1 4628   8.786   0.662   5.706  0.6165 -0.2634  0.2294
  878SOL    HW2 4629   8.918   0.681   5.634 -0.4073  0.7997 -1.4463
  879SOL     OW 4630   5.222   4.683   5.035  0.5642  0.4749 -0.1009
  879SOL    HW1 4631   5.171   4.619   4.985 -1.0019  1.3730  0.2775
  879SOL    HW2 4632   5.269   4.630   5.100 -0.1030 -0.3640 -0.2764
  880SOL     OW 4633   7.328   4.712   4.876 -0.2438 -0.6774  0.1670
  880SOL    HW1 4634   7.398   4.771   4.848 -1.7432  0.5437 -1.2675
  880SOL    HW2 4635   7.301   4.667   4.796 -2.1774  0.1213  0.3210
  881SOL     OW 4636   5.907   0.186   5.808  0.2027 -0.6352 -0.1974
  881SOL    HW1 4637   5.910   0.091   5.817  0.6283 -0.5565  0.6731
  881SOL    HW2 4638   5.816   0.209   5.827  0.4679 -0.7374  1.3929
  882SOL     OW 4639   7.088   6.660   2.433  0.0920  0.1984 -0.2433
  882SOL    HW1 4640   7.023   6.718   2.475 -0.4515  0.2542 -1.1504
  882SOL    HW2 4641   7.128   6.613   2.506  0.1495  1.3159  0.4705
  883SOL     OW 4642   0.447   1.201   1.905 -0.0989 -0.0553  0.3166
  883SOL    HW1 4643   0.477   1.200   1.814 -0.0766  1.7890  0.2590
  883SOL    HW2 4644   0.521   1.236   1.954 -0.9154  1.2191  0.6757
  884SOL     OW 4645   2.494   5.084   2.471  0.3856  0.6320  0.0747
  884SOL    HW1 4646   2.468   5.093   2.562  0.0251  0.1343  0.0253
  884SOL    HW2 4647   2.479   4.991   2.451  1.0440  0.5973 -0.3098
  885SOL     OW 4648   1.133   4.533   1.481  0.0355 -0.1501  0.3993
  885SOL    HW1 4649   1.169   4.602   1.537  0.8164 -0.3780  0.1864
  885SOL    HW2 4650   1.205   4.507   1.425 -0.5020 -0.5281 -0.1342
  886SOL     OW 4651   3.223   7.286   1.039 -0.0472 -0.6149 -0.2054
  886SOL    HW1 4652   3.189   7.268   1.127 -0.2556 -0.8448 -0.3305
  886SOL    HW2 4653   3.317   7.294   1.051 -0.0073 -1.2504 -0.0547
  887SOL     OW 4654   3.091   4.934   1.386 -0.2353 -0.1744 -0.2514
  887SOL    HW1 4655   3.084   5.020   1.428  0.2081 -0.8984  1.4110
  887SOL    HW2 4656   3.151   4.947   1.313 -0.4114  0.9983 -0.1971
  888SOL     OW 4657   4.386   4.953   3.206 -0.2495 -0.4441 -0.2018
  888SOL    HW1 4658   4.383   5.047   3.190  2.7842 -0.4550 -1.4932
  888SOL    HW2 4659   4.396   4.945   3.301 -0.9351  0.5042 -0.0404
  889SOL     OW 4660   1.848   2.153   7.891  0.2949  0.3214  0.0692
  889SOL    HW1 4661   1.914   2.180   7.826  0.9152 -0.9771  0.1175
  889SOL    HW2 4662   1.852   2.057   7.890 -0.8344  0.2488  0.8753
  890SOL     OW 4663   1.873   3.310   5.933  1.0989 -0.0775 -0.0428
  890SOL    HW1 4664   1.806   3.268   5.988  0.9483  0.0280 -0.1473
  890SOL    HW2 4665   1.890   3.247   5.864  2.0927 -0.6989  0.7354
  891SOL     OW 4666   7.661   8.002   8.770  0.1073  0.3045 -0.2760
  891SOL    HW1 4667   7.705   7.951   8.703 -0.2876 -0.7340  0.2344
  891SOL    HW2 4668   7.692   8.092   8.756 -1.5030  0.5250 -3.1192
  892SOL     OW 4669   3.465   5.709   4.099 -0.4694  0.5221  0.2725
  892SOL    HW1 4670   3.390   5.651   4.087  1.0592 -1.5303  0.0566
  892SOL    HW2 4671   3.519   5.664   4.163  0.2235  2.3426  1.0070
  893SOL     OW 4672   1.044   6.274   6.106  0.1160 -0.0833  0.2552
  893SOL    HW1 4673   1.011   6.322   6.030  0.1430 -0.4762 -0.0081
  893SOL    HW2 4674   1.009   6.185   6.095  1.6929 -0.6549 -0.3157
  894SOL     OW 4675   4.864   2.469   4.666  0.0785 -0.1730  0.0819
  894SOL    HW1 4676   4.935   2.512   4.619  1.4984 -1.3601  1.0474
  894SOL    HW2 4677   4.848   2.389   4.617 -0.5084  0.0105 -0.0370
  895SOL     OW 4678   2.582   8.561   6.698 -0.3989  0.7574 -1.0732
  895SOL    HW1 4679   2.677   8.572   6.689 -0.2590  1.3405  0.7200
  895SOL    HW2 4680   2.544   8.640   6.660  0.1051  2.6572  2.0021
  896SOL     OW 4681   1.460   1.597   6.219 -0.6870 -0.4363  0.3187
  896SOL    HW1 4682   1.415   1.595   6.135 -0.9624 -2.0918  0.4737
  896SOL    HW2 4683   1.508   1.680   6.218 -1.5340  0.0772 -1.0025
  897SOL     OW 4684   8.171   6.261   5.627  0.2697  0.3993  0.2121
  897SOL    HW1 4685   8.164   6.194   5.560 -2.1158 -0.6597  1.3944
  897SOL    HW2 4686   8.134   6.221   5.705  1.9538  1.9528  1.9152
  898SOL     OW 4687   4.550   6.096   3.835  0.3897  0.0088 -0.5618
  898SOL    HW1 4688   4.515   6.056   3.915 -0.3794 -0.4243 -1.1107
  898SOL    HW2 4689   4.551   6.190   3.854 -0.1674 -0.0572 -0.1886
  899SOL     OW 4690   7.536   4.329   3.563  0.0789  0.2307 -0.3633
  899SOL    HW1 4691   7.601   4.377   3.613  0.4209 -0.8826  0.2809
  899SOL    HW2 4692   7.474   4.296   3.628 -0.6332  0.4998 -0.8800
  900SOL     OW 4693   5.011   7.510   1.744 -0.2568 -0.0124  0.0473
  900SOL    HW1 4694   5.073   7.443   1.716 -0.6709 -0.4800  0.2361
  900SOL    HW2 4695   4.985   7.554   1.663  2.8380  2.4836  0.2033
  901SOL     OW 4696   2.731   8.721   4.184  0.1322 -0.1389  0.4569
  901SOL    HW1 4697   2.696   8.803   4.148 -0.6482 -1.4448 -1.9636
  901SOL    HW2 4698   2.804   8.699   4.126  0.5814 -0.9723  1.3216
  902SOL     OW 4699   7.308   4.573   3.137  0.1113  0.7854  0.1580
  902SOL    HW1 4700   7.347   4.498   3.181  0.8647  0.0552 -1.6985
  902SOL    HW2 4701   7.339   4.568   3.047 -2.5756  1.3510 -0.9044
  903SOL     OW 4702   5.219   8.889   8.425 -0.1230 -0.0604  0.7712
  903SOL    HW1 4703   5.263   8.812   8.461 -0.3541  0.2630  1.7736
  903SOL    HW2 4704   5.159   8.917   8.494 -1.1314  0.1396 -0.1652
  904SOL     OW 4705   2.892   0.226   8.822 -0.4176 -0.1210 -0.5551
  904SOL    HW1 4706   2.980   0.196   8.842 -0.8109 -1.6494 -1.0366
  904SOL    HW2 4707   2.843   0.214   8.904 -0.7402 -1.4731 -0.9317
  905SOL     OW 4708   6.804   3.563   1.662 -0.4806 -0.4856 -0.6110
  905SOL    HW1 4709   6.829   3.513   1.739  1.1439  0.3609 -0.5399
  905SOL    HW2 4710   6.732   3.513   1.623 -1.1230 -1.0901  1.2538
  906SOL     OW 4711   6.526   8.321   1.172 -0.4260 -0.2945  0.1233
  906SOL    HW1 4712   6.506   8.322   1.265 -0.2971  0.8993  0.1577
  906SOL    HW2 4713   6.614   8.284   1.166  0.7180  2.0867  0.7677
  907SOL     OW 4714   5.554   7.642   6.132 -0.0886 -0.6865  0.0602
  907SOL    HW1 4715   5.619   7.692   6.082  0.3526  1.0329  2.1880
  907SOL    HW2 4716   5.502   7.708   6.177 -2.9188 -2.0367 -0.9495
  908SOL     OW 4717   7.372   4.412   8.873  0.2883  0.3684 -0.1444
  908SOL    HW1 4718   7.375   4.390   8.966  0.2569 -1.7082 -0.5920
  908SOL    HW2 4719   7.278   4.422   8.854  0.1716 -0.7674 -0.2549
  909SOL     OW 4720   0.357   4.830   6.594 -0.4417  0.5611 -0.6331
  909SOL    HW1 4721   0.290   4.858   6.533  0.2117  1.6910 -0.8546
  909SOL    HW2 4722   0.395   4.911   6.628 -0.1943 -0.0433  0.6176
  910SOL     OW 4723   6.986   7.516   7.959  0.3749  0.4661  0.2014
  910SOL    HW1 4724   7.043   7.576   7.911  1.2571 -0.2853  0.2757
  910SOL    HW2 4725   7.015   7.522   8.050  0.9977 -0.6322  0.0903
  911SOL     OW 4726   0.605   6.406   8.813 -0.0835  0.2932  0.4064
  911SOL    HW1 4727   0.606   6.312   8.832 -0.4850 -0.1374 -1.5538
  911SOL    HW2 4728   0.514   6.432   8.825  0.1039  0.5718  1.3916
  912SOL     OW 4729   5.872   4.254   6.868 -0.5546 -0.0625  0.4341
  912SOL    HW1 4730   5.924   4.328   6.900 -0.5460  0.6946 -1.2483
  912SOL    HW2 4731   5.913   4.177   6.907  1.0029  0.6250  0.2154
  913SOL     OW 4732   2.195   1.097   0.723  1.0563 -0.3569  0.6686
  913SOL    HW1 4733   2.148   1.028   0.675  0.0533 -0.3025  1.5215
  913SOL    HW2 4734   2.212   1.165   0.658 -2.6093  0.9140  0.7938
  914SOL     OW 4735   0.456   1.424   6.014 -0.1547 -0.8768 -0.2882
  914SOL    HW1 4736   0.444   1.346   6.068  0.3198 -1.8461 -1.5099
  914SOL    HW2 4737   0.417   1.400   5.930  1.0435 -0.2533 -1.0547
  915SOL     OW 4738   5.932   8.089   4.224  0.0962  0.9855  0.0509
  915SOL    HW1 4739   5.862   8.137   4.181 -2.1508  0.0638  2.4228
  915SOL    HW2 4740   5.933   8.004   4.179  2.7951  2.3447 -2.8665
  916SOL     OW 4741   5.367   8.532   6.894 -0.2442 -0.3405  0.4105
  916SOL    HW1 4742   5.389   8.548   6.985 -2.3392  0.2350  0.8514
  916SOL    HW2 4743   5.452   8.529   6.849  0.7254  1.7331  1.9779
  917SOL     OW 4744   7.901   1.877   6.455  0.5577 -0.1760 -0.3119
  917SOL    HW1 4745   7.848   1.845   6.528  1.9323  1.2325  1.4117
  917SOL    HW2 4746   7.992   1.865   6.484  1.2089 -1.1086 -2.5350
  918SOL     OW 4747   8.821   0.170   5.556  0.3339  0.7328 -0.0888
  918SOL    HW1 4748   8.742   0.165   5.610  1.4520 -1.0281  1.4989
  918SOL    HW2 4749   8.808   0.105   5.487 -0.5091  2.0096 -1.1653
  919SOL     OW 4750   2.935   6.737   4.408 -0.0400 -0.3906 -0.0342
  919SOL    HW1 4751   2.957   6.713   4.498  1.2449  0.0933 -0.1989
  919SOL    HW2 4752   2.889   6.660   4.373 -0.4653 -0.6147  0.9878
  920SOL     OW 4753   8.042   2.688   0.403  0.2801  0.2937  0.2218
  920SOL    HW1 4754   8.124   2.667   0.357  0.1777  0.9866 -0.2898
  920SOL    HW2 4755   8.055   2.777   0.435  0.9005 -0.6515  2.7904
  921SOL     OW 4756   2.389   1.238   0.417  0.0771 -0.0996 -0.9011
  921SOL    HW1 4757   2.406   1.150   0.451 -0.6385 -0.3656 -1.2169
  921SOL    HW2 4758   2.420   1.235   0.326 -0.8418 -0.3198 -1.2085
  922SOL     OW 4759   1.450   3.878   3.296  0.2163 -0.2377  0.0575
  922SOL    HW1 4760   1.522   3.939   3.307  0.1974 -0.0370 -0.8711
  922SOL    HW2 4761   1.479   3.798   3.340 -0.3707  0.8658  2.6384
  923SOL     OW 4762   1.927   8.106   1.477  0.2922  0.1043  0.6303
  923SOL    HW1 4763   1.860   8.154   1.429 -0.2886 -2.4007 -1.2828
  923SOL    HW2 4764   1.969   8.172   1.532 -1.6642  2.3628 -0.4042
  924SOL     OW 4765   8.193   1.681   1.970  0.1241  0.2808 -0.3804
  924SOL    HW1 4766   8.195   1.591   2.004  0.3494  0.4618  0.0899
  924SOL    HW2 4767   8.277   1.692   1.925 -0.0891  0.1095 -0.8240
  925SOL     OW 4768   5.407   3.047   2.292 -0.3177  0.0008 -0.1935
  925SOL    HW1 4769   5.447   3.020   2.209 -1.7788 -0.9068 -0.6472
  925SOL    HW2 4770   5.462   3.119   2.323  0.4266  0.1778 -1.8027
  926SOL     OW 4771   4.569   5.173   4.839 -0.0767 -0.3719 -0.7186
  926SOL    HW1 4772   4.553   5.163   4.933  3.2952 -1.1154 -0.0596
  926SOL    HW2 4773   4.613   5.091   4.814  3.5294  1.6380 -1.6855
  927SOL     OW 4774   3.798   4.938   4.089  0.4872 -0.2710  0.0328
  927SOL    HW1 4775   3.890   4.937   4.064  0.5480 -0.4080  0.2540
  927SOL    HW2 4776   3.790   4.864   4.149  0.4161  0.2466  0.6680
  928SOL     OW 4777   8.556   3.146   8.693 -0.0820 -0.3308 -0.3027
  928SOL    HW1 4778   8.519   3.234   8.699  1.0427  0.2283 -1.1143
  928SOL    HW2 4779   8.567   3.131   8.599  0.8050 -0.8674 -0.1240
  929SOL     OW 4780   5.869   3.806   8.395 -0.4506  0.5571  0.1814
  929SOL    HW1 4781   5.924   3.735   8.360  0.1154  0.7739  0.6246
  929SOL    HW2 4782   5.923   3.884   8.386 -0.3297  0.6383  1.4366
  930SOL     OW 4783   6.093   1.784   6.795 -0.3257  0.5472 -0.1211
  930SOL    HW1 4784   6.049   1.712   6.840 -0.3551  0.8356  0.3175
  930SOL    HW2 4785   6.054   1.785   6.708 -0.9568  0.5877  0.1573
  931SOL     OW 4786   5.797   0.948   8.636  0.3871 -0.0387  0.2668
  931SOL    HW1 4787   5.771   1.014   8.701  0.8450 -0.5064  0.9400
  931SOL    HW2 4788   5.747   0.971   8.558 -0.2665  0.4685  0.8185
  932SOL     OW 4789   0.121   1.100   1.498  0.2972 -0.1707 -0.1448
  932SOL    HW1 4790   0.030   1.097   1.467  0.3094  0.4561 -0.2482
  932SOL    HW2 4791   0.173   1.103   1.417  0.3165  1.9058 -0.1141
  933SOL     OW 4792   7.975   7.360   5.904  0.6092  0.2012  0.6094
  933SOL    HW1 4793   7.914   7.288   5.917  0.5868  0.1355  0.1510
  933SOL    HW2 4794   8.022   7.368   5.987  1.6456 -1.3161  0.2071
  934SOL     OW 4795   0.073   7.899   2.818 -0.3774 -0.4099 -0.5736
  934SOL    HW1 4796   0.142   7.965   2.829 -0.7228 -0.1854  0.3286
  934SOL    HW2 4797   0.063   7.860   2.905 -2.0201  0.1936 -0.4639
  935SOL     OW 4798   3.416   8.245   3.865 -0.3302  0.1804 -0.1720
  935SOL    HW1 4799   3.350   8.223   3.932  0.8186 -1.8379  0.3686
  935SOL    HW2 4800   3.489   8.186   3.884  1.2648  1.7078 -1.3464
  936SOL     OW 4801   3.942   6.970   1.931  0.0373 -0.1931  0.0188
  936SOL    HW1 4802   4.025   7.018   1.928 -0.6603  1.0333 -0.8286
  936SOL    HW2 4803   3.899   6.992   1.848 -1.3406 -0.4043  0.6445
  937SOL     OW 4804   1.883   4.950   6.856  0.3062 -0.0735  0.0543
  937SOL    HW1 4805   1.968   4.909   6.871 -0.0781 -0.4535  1.2562
  937SOL    HW2 4806   1.819   4.885   6.884 -0.3600  0.6016  0.1212
  938SOL     OW 4807   6.831   0.609   6.739  0.0761  0.0453  0.5324
  938SOL    HW1 4808   6.872   0.638   6.657  0.5902 -1.9596  0.0305
  938SOL    HW2 4809   6.853   0.677   6.802 -0.3442  1.6669 -0.9649
  939SOL     OW 4810   8.718   4.107   4.963  0.3517  0.3784  0.4450
  939SOL    HW1 4811   8.653   4.120   5.031 -0.0813  1.4992 -0.1458
  939SOL    HW2 4812   8.712   4.186   4.909  0.7436 -0.4305 -0.8307
  940SOL     OW 4813   3.405   4.783   2.587  0.1196  0.0921 -0.2092
  940SOL    HW1 4814   3.491   4.749   2.612  0.3761 -0.8592 -2.1759
  940SOL    HW2 4815   3.342   4.722   2.625  0.3211  0.5493  0.8771
  941SOL     OW 4816   8.772   8.393   3.871 -0.3568 -0.2158  0.2417
  941SOL    HW1 4817   8.855   8.437   3.850  0.0902 -1.5288 -0.9212
  941SOL    HW2 4818   8.716   8.462   3.906  1.3287  0.6433  1.3580
  942SOL     OW 4819   6.133   6.377   2.654 -0.2387  0.0177  0.7891
  942SOL    HW1 4820   6.076   6.355   2.580  1.3279 -1.0377 -0.1586
  942SOL    HW2 4821   6.217   6.396   2.614  0.4241  0.2462  2.2535
  943SOL     OW 4822   2.417   8.542   6.405 -0.6587  0.5278  0.3433
  943SOL    HW1 4823   2.335   8.584   6.431 -0.6192  1.2264 -0.6215
  943SOL    HW2 4824   2.485   8.592   6.451 -0.5887  1.7677 -1.0619
  944SOL     OW 4825   5.816   4.780   7.307 -0.2084  0.4287 -0.1025
  944SOL    HW1 4826   5.905   4.800   7.280 -0.1145  3.8654  2.0481
  944SOL    HW2 4827   5.825   4.714   7.376  0.4474 -0.6322 -1.1753
  945SOL     OW 4828   1.963   4.559   6.923 -0.2581 -0.5489  0.5870
  945SOL    HW1 4829   1.989   4.480   6.875 -0.1692 -0.6564  0.8090
  945SOL    HW2 4830   1.867   4.557   6.922 -0.2547 -0.3665  0.1149
  946SOL     OW 4831   7.194   3.302   4.915  0.1358 -0.0485  0.3329
  946SOL    HW1 4832   7.130   3.290   4.846 -0.6501 -3.1713  1.4657
  946SOL    HW2 4833   7.160   3.375   4.967 -0.1264  1.2126 -1.4871
  947SOL     OW 4834   3.720   4.798   8.817  0.4941 -0.2929 -0.4574
  947SOL    HW1 4835   3.645   4.740   8.827  0.1771  0.1672 -0.1448
  947SOL    HW2 4836   3.790   4.740   8.787  0.3558 -0.9626  0.4430
  948SOL     OW 4837   8.550   1.142   6.339  0.1259  0.8346  0.8664
  948SOL    HW1 4838   8.610   1.103   6.275  0.7308  0.5388  1.6022
  948SOL    HW2 4839   8.559   1.236   6.326 -1.9131  0.8317 -1.4545
  949SOL     OW 4840   1.935   3.381   1.848 -0.3299 -0.2266  0.2332
  949SOL    HW1 4841   1.906   3.390   1.757  1.9637  0.0002 -0.5231
  949SOL    HW2 4842   1.909   3.463   1.890  1.1700  0.9326 -1.0066
  950SOL     OW 4843   6.798   4.451   8.335  0.0158 -0.4768 -0.1096
  950SOL    HW1 4844   6.790   4.524   8.275 -1.8038 -1.5644 -1.2698
  950SOL    HW2 4845   6.891   4.446   8.355  0.1131  2.6563  0.7172
  951SOL     OW 4846   2.730   0.567   5.719 -0.1939  0.1766 -0.0872
  951SOL    HW1 4847   2.708   0.571   5.812 -2.0520  0.6210 -0.5159
  951SOL    HW2 4848   2.674   0.498   5.684 -0.4403  0.8601 -1.0953
  952SOL     OW 4849   7.914   3.055   4.096 -0.1012  0.1588  0.5712
  952SOL    HW1 4850   7.966   3.064   4.176  0.5290  0.5190  0.1204
  952SOL    HW2 4851   7.840   3.115   4.109 -0.2897 -0.1842  1.1117
  953SOL     OW 4852   8.240   5.145   2.476 -0.1990 -0.6830  0.6102
  953SOL    HW1 4853   8.222   5.173   2.387  0.5574  0.3796  0.7811
  953SOL    HW2 4854   8.167   5.180   2.528  0.1089 -0.0609  0.6298
  954SOL     OW 4855   7.340   8.043   5.931 -0.1624 -0.4203  0.2757
  954SOL    HW1 4856   7.363   8.005   5.846 -0.1529 -1.7161  0.8245
  954SOL    HW2 4857   7.358   8.136   5.922 -3.6616  0.1844 -2.3733
  955SOL     OW 4858   2.008   8.562   5.657  0.2580 -0.3963 -0.1049
  955SOL    HW1 4859   1.999   8.500   5.729 -0.2073 -0.3893 -0.1559
  955SOL    HW2 4860   2.069   8.520   5.596  0.5931 -0.4347  0.2499
  956SOL     OW 4861   4.275   1.479   4.857  0.4773  0.4491  0.6221
  956SOL    HW1 4862   4.291   1.482   4.951  0.6702 -0.0407  0.6073
  956SOL    HW2 4863   4.343   1.533   4.819 -1.0228  2.6770  0.9207
  957SOL     OW 4864   7.611   4.564   0.001 -0.4988 -0.2312  0.0902
  957SOL    HW1 4865   7.649   4.564   0.089  0.2035  1.2343 -0.1842
  957SOL    HW2 4866   7.570   4.477  -0.007  1.1787 -1.1725  1.0849
  958SOL     OW 4867   5.170   3.093   0.623 -0.3859  0.0346  0.6143
  958SOL    HW1 4868   5.241   3.128   0.567 -1.1392  0.8805  0.1608
  958SOL    HW2 4869   5.204   3.010   0.655 -0.3572 -1.1267 -2.1046
  959SOL     OW 4870   8.790   1.630   2.147  0.0324  0.2332 -0.3932
  959SOL    HW1 4871   8.877   1.641   2.108  0.4163 -0.6083  0.1954
  959SOL    HW2 4872   8.736   1.696   2.103  0.8094  0.3410 -1.2281
  960SOL     OW 4873   8.001   6.108   6.920  0.4427  0.1688  0.0530
  960SOL    HW1 4874   8.079   6.053   6.916  0.4430  0.2499 -1.6566
  960SOL    HW2 4875   8.010   6.168   6.846 -0.0494  1.8232  1.2795
  961SOL     OW 4876   3.478   2.474   1.017  0.2907 -0.2651 -0.5602
  961SOL    HW1 4877   3.481   2.563   1.053  0.4228 -0.3695 -0.3127
  961SOL    HW2 4878   3.558   2.433   1.047  0.2022 -0.4877 -0.6265
  962SOL     OW 4879   2.123   7.042   6.964 -0.1605 -0.1230  0.4989
  962SOL    HW1 4880   2.128   7.079   7.052  0.2095  0.1006  0.3858
  962SOL    HW2 4881   2.031   7.050   6.940 -0.4229 -0.9091  1.1736
  963SOL     OW 4882   8.850   5.525   0.704 -0.0460 -0.1914  0.0533
  963SOL    HW1 4883   8.863   5.475   0.784 -1.3289 -1.6746 -0.6070
  963SOL    HW2 4884   8.782   5.477   0.657 -2.7632  3.1529  0.1898
  964SOL     OW 4885   5.017   5.189   3.397  0.6283  0.3942  0.5133
  964SOL    HW1 4886   4.962   5.120   3.359  0.7329  0.8057 -0.4210
  964SOL    HW2 4887   4.972   5.214   3.477  0.2629 -0.3338  0.5437
  965SOL     OW 4888   8.368   6.239   0.325 -0.2517  0.2109  0.4325
  965SOL    HW1 4889   8.343   6.154   0.362 -0.2913 -0.5568 -1.2613
  965SOL    HW2 4890   8.464   6.238   0.327 -0.2410 -0.0860 -0.0073
  966SOL     OW 4891   0.537   7.825   3.888  0.0114 -0.5373 -0.3838
  966SOL    HW1 4892   0.446   7.823   3.859 -0.6694  2.0924  1.1563
  966SOL    HW2 4893   0.582   7.879   3.823  0.0693 -0.4029 -0.2334
  967SOL     OW 4894   0.026   3.314   1.704 -0.1480 -0.4149 -0.0542
  967SOL    HW1 4895  -0.013   3.325   1.617  0.1758 -0.4170 -0.2013
  967SOL    HW2 4896   0.021   3.220   1.720 -0.8085 -0.3457  0.2169
  968SOL     OW 4897   8.221   0.867   6.299 -0.6655  0.1522  0.6402
  968SOL    HW1 4898   8.300   0.922   6.298  0.1541 -0.9796  1.2514
  968SOL    HW2 4899   8.161   0.912   6.358 -0.5775  1.1371  0.0110
  969SOL     OW 4900   3.143   2.124   8.463 -0.4196  0.3678  0.3590
  969SOL    HW1 4901   3.138   2.213   8.428  0.8820 -0.0810 -1.0757
  969SOL    HW2 4902   3.066   2.116   8.519 -1.3887  1.8967 -0.6722
  970SOL     OW 4903   0.544   6.714   6.768 -0.5967  0.5901  0.0539
  970SOL    HW1 4904   0.544   6.623   6.739  0.8810  1.0077 -1.4016
  970SOL    HW2 4905   0.484   6.716   6.842  0.0377 -1.7474  0.6883
  971SOL     OW 4906   3.421   5.838   5.500 -0.0968  0.4773  0.4184
  971SOL    HW1 4907   3.388   5.874   5.582  1.3118  0.3672  1.0637
  971SOL    HW2 4908   3.394   5.901   5.434 -1.1460  0.6308  0.9603
  972SOL     OW 4909   8.016   7.700   0.485  0.4951  0.1642  0.4442
  972SOL    HW1 4910   7.946   7.730   0.427  0.1035 -1.2878  0.1143
  972SOL    HW2 4911   8.067   7.779   0.504  0.0654  0.8567 -1.0917
  973SOL     OW 4912   8.722   6.879   7.885 -0.4712  0.4029  0.2534
  973SOL    HW1 4913   8.656   6.949   7.884 -0.3019  0.5666  0.4508
  973SOL    HW2 4914   8.713   6.838   7.971  0.0387  0.7649  0.4831
  974SOL     OW 4915   2.274   5.438   3.171 -0.0888 -0.3129 -0.2742
  974SOL    HW1 4916   2.264   5.346   3.147 -1.8211 -0.0840 -0.5224
  974SOL    HW2 4917   2.304   5.436   3.262  0.1112 -1.1140 -0.3505
  975SOL     OW 4918   7.134   2.003   6.631  0.4843  0.4678 -0.3432
  975SOL    HW1 4919   7.134   1.911   6.605  2.2236  0.6678 -1.1785
  975SOL    HW2 4920   7.081   2.047   6.565 -0.5788  0.0460  0.2093
  976SOL     OW 4921   8.404   1.602   4.793 -0.0656 -0.1264  0.3108
  976SOL    HW1 4922   8.452   1.546   4.732 -1.4454 -2.0039  0.8264
  976SOL    HW2 4923   8.381   1.543   4.866 -2.5329  0.7874  0.3739
  977SOL     OW 4924   6.992   7.612   4.454 -0.0582  0.0285  0.5370
  977SOL    HW1 4925   7.065   7.575   4.503 -0.1906  0.3902  1.0243
  977SOL    HW2 4926   6.971   7.546   4.388  0.2746 -0.3710  0.8245
  978SOL     OW 4927   1.964   0.906   1.887  0.6225 -0.5574 -0.3165
  978SOL    HW1 4928   1.872   0.902   1.911  0.4789 -2.8287 -1.0855
  978SOL    HW2 4929   1.967   0.966   1.812 -0.3840 -1.2963 -0.9590
  979SOL     OW 4930   3.467   4.178   4.531  0.1772 -0.7899  0.2441
  979SOL    HW1 4931   3.535   4.152   4.468  0.8112  2.1213 -0.4364
  979SOL    HW2 4932   3.389   4.193   4.478 -0.2588 -1.4969  0.6598
  980SOL     OW 4933   0.651   8.071   7.411 -0.4807 -0.3810 -0.1559
  980SOL    HW1 4934   0.600   8.003   7.368  2.1603 -1.5044 -1.7212
  980SOL    HW2 4935   0.633   8.058   7.504 -2.0304 -1.5215 -0.5655
  981SOL     OW 4936   2.959   3.942   5.077 -0.3586  0.0222 -0.1898
  981SOL    HW1 4937   2.889   3.988   5.123 -0.1343  1.2383 -0.9967
  981SOL    HW2 4938   2.931   3.942   4.985 -0.0428 -0.9041 -0.2948
  982SOL     OW 4939   0.211   5.051   8.675  0.2716  0.6616 -0.3008
  982SOL    HW1 4940   0.266   5.070   8.750 -2.3956 -2.9629  2.9936
  982SOL    HW2 4941   0.124   5.082   8.701 -1.4225 -3.5764 -0.1649
  983SOL     OW 4942   5.693   6.626   7.411 -0.3111 -0.0608  0.6052
  983SOL    HW1 4943   5.656   6.566   7.345 -0.4749  0.4029  0.2660
  983SOL    HW2 4944   5.710   6.571   7.487 -1.4989 -0.3341  0.6907
  984SOL     OW 4945   7.491   2.469   5.890  0.2603  0.0933 -0.0130
  984SOL    HW1 4946   7.557   2.537   5.907 -0.6729  0.8985  0.4628
  984SOL    HW2 4947   7.433   2.507   5.825 -0.5316 -0.0633  0.5879
  985SOL     OW 4948   5.533   6.937   8.400  0.8542  0.0835  0.5336
  985SOL    HW1 4949   5.592   6.908   8.470 -0.7581 -1.2901  1.4034
  985SOL    HW2 4950   5.467   6.868   8.394 -1.4267  2.1296  0.5303
  986SOL     OW 4951   3.848   4.713   6.450 -0.0519 -0.0056  0.4447
  986SOL    HW1 4952   3.942   4.698   6.439 -0.7246 -2.9755 -2.9615
  986SOL    HW2 4953   3.832   4.797   6.407  0.7925 -0.3282 -0.5377
  987SOL     OW 4954   4.162   8.292   4.438 -0.5249 -0.1303  0.1013
  987SOL    HW1 4955   4.184   8.202   4.465  0.4597  0.0367 -0.0961
  987SOL    HW2 4956   4.218   8.308   4.362  1.1297  1.4992  1.5633
  988SOL     OW 4957   2.404   8.503   4.119  0.7723 -0.1356  0.9298
  988SOL    HW1 4958   2.489   8.460   4.108 -0.2463 -2.6367  1.9985
  988SOL    HW2 4959   2.398   8.520   4.213  0.5496  1.1421  0.7052
  989SOL     OW 4960   1.370   2.428   1.912  0.1772  0.7809 -0.1006
  989SOL    HW1 4961   1.424   2.371   1.966 -0.4099 -1.6992 -1.9767
  989SOL    HW2 4962   1.282   2.422   1.950  0.1350  0.5114 -0.2412
  990SOL     OW 4963   8.370   8.200   0.739 -0.0984  0.1659  0.0536
  990SOL    HW1 4964   8.442   8.200   0.803  0.0413 -0.7744 -0.0955
  990SOL    HW2 4965   8.403   8.148   0.666 -0.0760  1.6268 -1.0181
  991SOL     OW 4966   3.591   2.085   8.721  0.0824 -0.1198  0.0632
  991SOL    HW1 4967   3.651   2.156   8.740  1.6527 -1.3229 -0.1755
  991SOL    HW2 4968   3.630   2.040   8.646 -1.6018 -0.4249 -0.6867
  992SOL     OW 4969   4.882   8.677   6.053 -0.0955  0.4877 -0.4477
  992SOL    HW1 4970   4.863   8.611   5.987 -0.7879  0.7687 -0.5299
  992SOL    HW2 4971   4.943   8.633   6.113 -2.0199 -0.9284  0.5956
  993SOL     OW 4972   5.304   4.262   4.209 -0.3966  0.5528  0.1437
  993SOL    HW1 4973   5.373   4.267   4.142 -0.0997  0.3114  0.4269
  993SOL    HW2 4974   5.245   4.334   4.187  0.6094  1.5642  0.6302
  994SOL     OW 4975   3.852   1.017   7.471 -0.2181  0.0481  0.2249
  994SOL    HW1 4976   3.887   1.094   7.517  0.0431 -0.7907  1.5056
  994SOL    HW2 4977   3.761   1.012   7.500 -0.8342  1.0026 -1.4363
  995SOL     OW 4978   4.580   5.111   1.787 -0.6147  0.0252 -0.0632
  995SOL    HW1 4979   4.606   5.197   1.821 -1.7171 -0.0967  1.1429
  995SOL    HW2 4980   4.592   5.051   1.860  1.8546 -1.2768 -1.3688
  996SOL     OW 4981   8.058   6.373   8.675  0.0352  0.4547 -0.4270
  996SOL    HW1 4982   8.116   6.431   8.722 -0.3981 -0.9892  2.0989
  996SOL    HW2 4983   8.100   6.287   8.680 -3.1716 -1.2340  3.7681
  997SOL     OW 4984   3.950   2.589   5.798  0.5701  0.5929 -0.0505
  997SOL    HW1 4985   3.952   2.575   5.703  1.6429  0.6997 -0.0540
  997SOL    HW2 4986   3.959   2.502   5.835 -1.0655  0.3957 -0.0103
  998SOL     OW 4987   4.253   3.348   5.681 -0.1161 -0.1368  0.7182
  998SOL    HW1 4988   4.233   3.422   5.738  0.4554  0.6289 -0.0566
  998SOL    HW2 4989   4.279   3.387   5.598  0.1708 -1.2091  0.2783
  999SOL     OW 4990   5.182   2.464   6.832  0.1018  0.0380 -0.7727
  999SOL    HW1 4991   5.181   2.558   6.853 -2.7095 -0.6964  3.7900
  999SOL    HW2 4992   5.097   2.447   6.792 -0.1112 -0.7705 -0.0096
 1000SOL     OW 4993   8.555   7.188   6.659  0.7380  0.5464  0.1528
 1000SOL    HW1 4994   8.649   7.197   6.678  0.6894  0.5819  0.3700
 1000SOL    HW2 4995   8.521   7.277   6.661  1.0164  0.7455 -1.6154
 1001SOL     OW 4996   6.254   2.500   5.323  0.3426  0.3505 -0.3982
 1001SOL    HW1 4997   6.283   2.479   5.234 -1.2522 -1.9801 -0.4482
 1001SOL    HW2 4998   6.188   2.434   5.343  0.5540  0.8818  2.4978
 1002SOL     OW 4999   7.703   8.016   3.029 -0.4773 -0.2560 -0.3478
 1002SOL    HW1 5000   7.645   7.939   3.029  0.6600 -1.1723 -1.8363
 1002SOL    HW2 5001   7.773   7.992   3.089  0.2256 -0.7064 -1.3131
 1003SOL     OW 5002   1.123   8.681   8.033 -0.0461  0.2682 -0.0284
 1003SOL    HW1 5003   1.151   8.757   8.085 -0.8309  0.2797  0.3881
 1003SOL    HW2 5004   1.067   8.718   7.964  0.6215  0.2024 -0.6205
 1004SOL     OW 5005   0.022   5.541   1.111 -0.1905  0.6519  0.0337
 1004SOL    HW1 5006   0.050   5.622   1.069  1.2048 -0.1461 -0.6871
 1004SOL    HW2 5007   0.098   5.514   1.163 -0.6633 -0.1323  0.3375
 1005SOL     OW 5008   8.146   3.387   0.816 -0.3978 -0.2615 -0.0242
 1005SOL    HW1 5009   8.223   3.346   0.855  0.1453 -0.8019 -1.5642
 1005SOL    HW2 5010   8.074   3.328   0.838 -0.1757 -0.3365  0.5083
 1006SOL     OW 5011   0.699   0.728   6.038 -0.2004 -0.3440  0.5450
 1006SOL    HW1 5012   0.657   0.685   5.963  0.4229 -0.8142  0.4498
 1006SOL    HW2 5013   0.760   0.662   6.071 -0.1874  0.0060  1.2246
 1007SOL     OW 5014   3.945   6.415   6.041 -0.6988  0.0610  0.6756
 1007SOL    HW1 5015   3.881   6.400   6.110 -0.1423 -0.1286  1.1579
 1007SOL    HW2 5016   3.995   6.333   6.037 -1.8034 -0.5744 -1.1048
 1008SOL     OW 5017   1.606   2.818   7.847  0.3977 -0.4603 -0.3650
 1008SOL    HW1 5018   1.532   2.819   7.908  0.2287 -0.0529 -0.5736
 1008SOL    HW2 5019   1.568   2.788   7.764  0.3580  0.2388 -0.6043
 1009SOL     OW 5020   8.541   7.809   4.815 -0.1917 -0.5907  0.5483
 1009SOL    HW1 5021   8.563   7.895   4.780 -1.4542  0.1838  1.5866
 1009SOL    HW2 5022   8.624   7.760   4.812 -0.0389 -0.3833 -2.8315
 1010SOL     OW 5023   2.204   0.767   1.931 -0.3499  0.1482  0.2002
 1010SOL    HW1 5024   2.116   0.804   1.924 -0.6883  0.0964  2.9428
 1010SOL    HW2 5025   2.261   0.843   1.945 -0.5216 -0.0269  2.0794
 1011SOL     OW 5026   5.323   3.232   7.461 -0.2117 -0.0245  0.2924
 1011SOL    HW1 5027   5.371   3.162   7.505  1.1094  1.0730  0.6284
 1011SOL    HW2 5028   5.378   3.257   7.388 -1.9730 -1.2032 -1.5415
 1012SOL     OW 5029   5.916   6.838   7.866 -0.7059 -0.0456  0.5882
 1012SOL    HW1 5030   5.997   6.838   7.917 -2.0953  0.4664  2.9521
 1012SOL    HW2 5031   5.888   6.746   7.865  0.0349 -0.2910 -0.5795
 1013SOL     OW 5032   1.287   5.661   5.799 -0.6147  0.6663 -0.0497
 1013SOL    HW1 5033   1.304   5.636   5.890 -1.7116  0.3527  0.0907
 1013SOL    HW2 5034   1.348   5.733   5.781  1.5663 -1.0665  0.0275
 1014SOL     OW 5035   0.308   1.753   7.688  0.1271 -0.3356  0.3057
 1014SOL    HW1 5036   0.367   1.746   7.763  0.7935 -3.3738 -0.4072
 1014SOL    HW2 5037   0.221   1.760   7.727  0.6818  3.2142  1.3408
 1015SOL     OW 5038   0.446   6.964   7.429 -0.0810  0.4528  0.3202
 1015SOL    HW1 5039   0.497   7.035   7.389 -0.0055  0.3127  0.1659
 1015SOL    HW2 5040   0.405   7.005   7.506  0.0886  0.6226  0.3232
 1016SOL     OW 5041   6.433   0.939   6.482  0.5429 -0.1217 -0.5858
 1016SOL    HW1 5042   6.425   0.931   6.577 -1.1080  0.8349 -0.6014
 1016SOL    HW2 5043   6.366   1.003   6.457  0.9152 -0.3658 -2.4043
 1017SOL     OW 5044   7.430   1.952   0.973 -0.0011 -0.7307  0.5557
 1017SOL    HW1 5045   7.361   1.886   0.965 -1.9325  1.1882  0.1016
 1017SOL    HW2 5046   7.429   1.997   0.888 -0.6093  1.5030  1.6621
 1018SOL     OW 5047   7.071   5.437   2.910 -0.3638  0.2648 -0.6407
 1018SOL    HW1 5048   6.997   5.497   2.912 -1.4514 -1.0032  1.4791
 1018SOL    HW2 5049   7.134   5.476   2.970  0.5314  1.0787 -2.0522
 1019SOL     OW 5050   1.592   1.853   6.231 -0.2902  0.1258 -0.0351
 1019SOL    HW1 5051   1.659   1.922   6.241  1.1557 -1.3329  0.8000
 1019SOL    HW2 5052   1.567   1.858   6.139  2.6609 -0.7201 -0.9798
 1020SOL     OW 5053   3.302   4.019   3.760 -0.5456  0.2409  0.0452
 1020SOL    HW1 5054   3.396   4.001   3.765 -0.9009 -1.9734 -0.2063
 1020SOL    HW2 5055   3.289   4.055   3.672 -0.2023 -1.4890 -0.7442
 1021SOL     OW 5056   2.672   6.273   1.068  0.1685  0.0995  0.4191
 1021SOL    HW1 5057   2.730   6.197   1.062 -0.9084 -0.7024 -0.1305
 1021SOL    HW2 5058   2.719   6.343   1.023  0.7859 -0.4903  0.1319
 1022SOL     OW 5059   8.614   0.773   8.836 -0.2207 -0.0711  0.0899
 1022SOL    HW1 5060   8.540   0.773   8.775 -0.2353  2.1679  0.0077
 1022SOL    HW2 5061   8.622   0.682   8.864 -2.2242 -0.6021 -0.8307
 1023SOL     OW 5062   1.501   5.892   6.413 -0.3407 -0.2744  0.2043
 1023SOL    HW1 5063   1.558   5.947   6.359 -0.7253  0.0705  0.1442
 1023SOL    HW2 5064   1.555   5.868   6.488 -0.6281  1.4977  1.0427
 1024SOL     OW 5065   5.106   1.554   7.565 -0.2406  0.2740 -0.6069
 1024SOL    HW1 5066   5.095   1.612   7.640 -1.0190  1.1984 -1.3989
 1024SOL    HW2 5067   5.026   1.502   7.563  0.3472 -0.6809 -0.0468
 1025SOL     OW 5068   0.221   5.778   7.324 -0.3894 -0.3802 -0.1261
 1025SOL    HW1 5069   0.201   5.730   7.405 -0.3390  0.4465  0.3905
 1025SOL    HW2 5070   0.187   5.722   7.254 -2.9164  0.1060  0.6107
 1026SOL     OW 5071   3.036   6.216   8.828  0.8310  0.5328  0.0605
 1026SOL    HW1 5072   3.065   6.244   8.741 -1.6918 -0.1455 -1.0972
 1026SOL    HW2 5073   3.102   6.153   8.856 -0.0199 -1.9476 -2.9666
 1027SOL     OW 5074   4.594   5.552   1.069 -0.5115 -0.0484  0.6627
 1027SOL    HW1 5075   4.560   5.471   1.106  0.2444 -1.7327 -2.0303
 1027SOL    HW2 5076   4.522   5.587   1.017 -0.3757  0.2083  0.6474
 1028SOL     OW 5077   6.967   5.792   7.846  0.2827  0.0095 -0.8555
 1028SOL    HW1 5078   6.985   5.874   7.799 -0.4453 -0.9845 -3.0134
 1028SOL    HW2 5079   6.873   5.777   7.832  0.2993 -0.9212 -0.0309
 1029SOL     OW 5080   5.567   3.780   4.046  0.1596  0.0874 -0.8857
 1029SOL    HW1 5081   5.500   3.747   3.986 -0.5928 -1.4735  0.7184
 1029SOL    HW2 5082   5.554   3.730   4.126  1.6113  1.5732  0.3479
 1030SOL     OW 5083   5.923   0.444   1.247  0.6192 -0.1642 -0.0725
 1030SOL    HW1 5084   5.878   0.468   1.329  1.2658  0.2969  0.1512
 1030SOL    HW2 5085   5.969   0.523   1.221  0.2830 -0.2620 -0.9864
 1031SOL     OW 5086   6.063   8.363   5.897  0.3801  0.1956  0.0355
 1031SOL    HW1 5087   6.073   8.455   5.873 -0.3975  0.5841  1.0992
 1031SOL    HW2 5088   6.061   8.364   5.993  2.3714 -1.1620  0.1399
 1032SOL     OW 5089   0.776   3.681   7.601 -0.2458 -0.6275 -0.3738
 1032SOL    HW1 5090   0.732   3.673   7.516 -0.8902  2.1430 -0.3839
 1032SOL    HW2 5091   0.783   3.591   7.632 -2.6454 -1.5007 -2.0185
 1033SOL     OW 5092   3.941   4.166   5.962 -0.1657  0.0278  0.5952
 1033SOL    HW1 5093   4.009   4.231   5.940 -0.4110  0.0858 -0.0305
 1033SOL    HW2 5094   3.986   4.102   6.016  0.9274 -1.0011 -1.4134
 1034SOL     OW 5095   4.040   4.028   5.652 -0.1217  0.4645 -0.4183
 1034SOL    HW1 5096   4.134   4.042   5.663 -0.2404  1.3171 -0.4200
 1034SOL    HW2 5097   4.011   4.103   5.600 -1.1022  1.1339  1.0270
 1035SOL     OW 5098   3.097   2.552   5.500 -0.1450 -0.1116 -0.0522
 1035SOL    HW1 5099   3.048   2.534   5.420 -1.5564 -1.8818  1.1325
 1035SOL    HW2 5100   3.046   2.620   5.544  0.4039  0.5571 -0.4231
 1036SOL     OW 5101   4.703   3.045   3.400 -0.4153 -0.7187 -0.3052
 1036SOL    HW1 5102   4.694   2.989   3.323  0.5123  0.1408 -1.0687
 1036SOL    HW2 5103   4.710   3.133   3.364  0.3761 -0.3375  0.7551
 1037SOL     OW 5104   1.414   1.048   2.993 -0.4772  0.4565 -0.5669
 1037SOL    HW1 5105   1.357   0.971   2.992  0.0432  0.0398 -2.5684
 1037SOL    HW2 5106   1.483   1.025   3.056 -0.3524 -0.7216 -1.0922
 1038SOL     OW 5107   6.024   7.719   8.006  0.5196 -0.4715  0.1315
 1038SOL    HW1 5108   5.986   7.712   8.094 -1.1053 -2.4545 -0.6296
 1038SOL    HW2 5109   5.948   7.725   7.948  1.5078 -0.6651 -1.2195
 1039SOL     OW 5110   3.877   6.223   5.299  0.1175  0.0501  0.7195
 1039SOL    HW1 5111   3.911   6.250   5.384 -2.4931 -0.1832  1.9576
 1039SOL    HW2 5112   3.806   6.284   5.281  0.9386  0.4222 -1.6053
 1040SOL     OW 5113   5.560   8.713   6.028  0.1096 -0.2542 -0.1527
 1040SOL    HW1 5114   5.521   8.689   6.113 -0.7249 -1.3759 -0.8207
 1040SOL    HW2 5115   5.640   8.662   6.023 -0.4163 -1.0606 -0.5117
 1041SOL     OW 5116   7.258   5.460   7.435  0.1163 -0.1181  0.6676
 1041SOL    HW1 5117   7.219   5.383   7.393  0.1903  0.0402  0.3033
 1041SOL    HW2 5118   7.290   5.428   7.519 -1.0883 -0.1864  1.1269
 1042SOL     OW 5119   4.565   6.208   7.761 -0.4870  0.0508 -0.2419
 1042SOL    HW1 5120   4.649   6.206   7.715  0.5621  0.1829  1.5587
 1042SOL    HW2 5121   4.500   6.211   7.691  1.0195  1.0941 -1.6919
 1043SOL     OW 5122   8.551   2.679   2.709  0.2997  0.2080  0.1741
 1043SOL    HW1 5123   8.462   2.676   2.676  0.0185 -0.2327  0.9513
 1043SOL    HW2 5124   8.604   2.702   2.633 -0.5680  1.3593 -0.1094
 1044SOL     OW 5125   3.159   6.267   5.731  0.0214 -0.1543  0.4029
 1044SOL    HW1 5126   3.207   6.346   5.704 -0.4588 -0.2687 -0.8264
 1044SOL    HW2 5127   3.089   6.299   5.787 -1.3506  0.5310 -1.6209
 1045SOL     OW 5128   8.345   3.224   6.332  0.1157  0.3144 -0.5841
 1045SOL    HW1 5129   8.326   3.130   6.332 -0.0200  0.3009  1.4079
 1045SOL    HW2 5130   8.302   3.258   6.411 -0.1657  2.1396 -1.4562
 1046SOL     OW 5131   8.545   1.949   8.225  0.1212 -0.0973 -0.2484
 1046SOL    HW1 5132   8.565   1.856   8.236  0.7559  0.0126 -0.4405
 1046SOL    HW2 5133   8.499   1.973   8.305 -0.2701 -0.6366 -0.3080
 1047SOL     OW 5134   0.057   4.593   7.700  0.1107  0.4448 -0.3541
 1047SOL    HW1 5135   0.050   4.497   7.706  2.8176  0.1897 -0.2184
 1047SOL    HW2 5136   0.029   4.624   7.786  0.0586 -0.2911 -0.0978
 1048SOL     OW 5137   3.618   2.072   0.920 -0.1733  0.1931 -0.0788
 1048SOL    HW1 5138   3.622   1.978   0.902 -2.4552  0.4020 -2.1999
 1048SOL    HW2 5139   3.525   2.093   0.917  0.1577  2.3258  1.7612
 1049SOL     OW 5140   2.030   4.649   1.197 -0.2920  0.2476 -0.3610
 1049SOL    HW1 5141   2.046   4.740   1.172 -0.4688  0.2761 -0.3708
 1049SOL    HW2 5142   1.939   4.632   1.170  0.2376 -0.4225 -1.8411
 1050SOL     OW 5143   6.674   4.528   1.817 -0.1619  0.1957 -0.1890
 1050SOL    HW1 5144   6.686   4.488   1.730 -1.4832  0.5021 -0.5254
 1050SOL    HW2 5145   6.725   4.472   1.876 -1.2365 -1.4883 -0.7875
 1051SOL     OW 5146   6.138   6.036   5.693 -0.7416  0.6736 -0.1540
 1051SOL    HW1 5147   6.170   5.998   5.612 -1.6089  0.8961 -0.6201
 1051SOL    HW2 5148   6.149   5.967   5.759 -1.4457 -0.0646 -0.7883
 1052SOL     OW 5149   3.824   5.903   0.536  0.2935 -0.4973 -0.5467
 1052SOL    HW1 5150   3.822   5.967   0.607 -0.1172  0.5759 -1.4854
 1052SOL    HW2 5151   3.888   5.938   0.474  0.3997 -1.2364 -0.8601
 1053SOL     OW 5152   2.698   4.487   0.683  0.4128  0.0018  0.4777
 1053SOL    HW1 5153   2.616   4.440   0.667  0.7602 -0.7302  0.8327
 1053SOL    HW2 5154   2.703   4.551   0.612  0.2443 -0.9137 -0.3741
 1054SOL     OW 5155   2.433   1.104   2.410  0.0418  0.0839  0.2287
 1054SOL    HW1 5156   2.352   1.137   2.447 -1.6322 -2.5132 -0.8392
 1054SOL    HW2 5157   2.458   1.031   2.466  0.8959 -0.0067 -0.2377
 1055SOL     OW 5158   3.035   2.552   6.160  0.6324  0.2277 -0.0283
 1055SOL    HW1 5159   3.089   2.474   6.175  0.6015 -0.2218 -1.9459
 1055SOL    HW2 5160   2.989   2.566   6.242  0.8880 -1.5815  0.4621
 1056SOL     OW 5161   8.214   7.316   5.061 -0.4847 -0.1436  0.1808
 1056SOL    HW1 5162   8.257   7.373   4.997 -1.9813  1.5884  0.6744
 1056SOL    HW2 5163   8.128   7.355   5.075 -0.6367 -1.1445  2.4027
 1057SOL     OW 5164   3.881   6.700   2.872  0.1409  0.6529  0.7127
 1057SOL    HW1 5165   3.975   6.691   2.887  0.1145  1.6379  1.5873
 1057SOL    HW2 5166   3.866   6.794   2.866 -0.5432  0.4498 -1.2586
 1058SOL     OW 5167   0.366   5.632   1.655 -0.0052 -0.0818  0.3200
 1058SOL    HW1 5168   0.404   5.710   1.695 -1.1123 -0.3303  1.9208
 1058SOL    HW2 5169   0.275   5.631   1.685  0.1785 -2.3667  0.9514
 1059SOL     OW 5170   6.066   2.776   3.260  0.3288 -0.5708 -0.4429
 1059SOL    HW1 5171   6.057   2.681   3.258 -0.6196 -0.5911  1.8255
 1059SOL    HW2 5172   5.984   2.809   3.224 -0.0811 -0.6421  0.4050
 1060SOL     OW 5173   4.957   3.188   1.025  0.1527 -0.6808  0.0851
 1060SOL    HW1 5174   4.920   3.105   1.056  0.2906 -0.7147  0.1600
 1060SOL    HW2 5175   4.883   3.234   0.986 -0.1229 -0.4505  0.8547
 1061SOL     OW 5176   6.487   2.116   8.668 -0.2008 -0.2085  0.5502
 1061SOL    HW1 5177   6.534   2.032   8.672 -0.7457 -0.5871 -0.4827
 1061SOL    HW2 5178   6.533   2.166   8.601  0.9791  0.8982  2.1341
 1062SOL     OW 5179   6.260   4.404   8.308 -0.3961 -0.2926 -0.5120
 1062SOL    HW1 5180   6.346   4.371   8.332 -0.0130  1.7830  1.3050
 1062SOL    HW2 5181   6.264   4.415   8.213  2.1266  1.6493 -0.2820
 1063SOL     OW 5182   1.745   2.335   5.620  0.8620 -0.6434  0.3676
 1063SOL    HW1 5183   1.691   2.300   5.550  0.9127  1.1899 -0.6454
 1063SOL    HW2 5184   1.808   2.265   5.639 -0.0029 -1.6796 -0.4563
 1064SOL     OW 5185   2.690   1.714   7.414 -0.2806 -0.0859 -0.3018
 1064SOL    HW1 5186   2.767   1.765   7.389 -0.2422 -0.2563 -0.5351
 1064SOL    HW2 5187   2.684   1.646   7.347  0.6334 -1.4108  0.8955
 1065SOL     OW 5188   1.732   7.535   6.285  0.2209 -0.0409  0.1067
 1065SOL    HW1 5189   1.637   7.524   6.290 -0.0565  1.4253 -1.1174
 1065SOL    HW2 5190   1.753   7.601   6.351  0.3152 -0.0001  0.0375
 1066SOL     OW 5191   5.060   1.254   7.430 -1.0005 -0.1857  0.4106
 1066SOL    HW1 5192   5.061   1.291   7.519 -0.4507 -0.2974  0.4574
 1066SOL    HW2 5193   5.150   1.226   7.415 -0.8937  0.5563 -0.4852
 1067SOL     OW 5194   0.257   6.917   2.292  0.3240 -0.0773 -1.0462
 1067SOL    HW1 5195   0.258   6.946   2.383  0.9837  1.6303 -1.5510
 1067SOL    HW2 5196   0.186   6.853   2.287  0.2254 -0.1408  0.6285
 1068SOL     OW 5197   6.461   1.107   1.122 -0.3024  0.3374  0.1587
 1068SOL    HW1 5198   6.510   1.189   1.130 -0.4919  0.4678 -0.0246
 1068SOL    HW2 5199   6.480   1.061   1.204 -0.5311  0.7491  0.4457
 1069SOL     OW 5200   6.012   7.423   5.479  0.4412 -0.3046  0.2994
 1069SOL    HW1 5201   6.066   7.384   5.410  0.0453  0.2761 -0.3593
 1069SOL    HW2 5202   5.947   7.474   5.431 -0.3279 -0.5192  1.0939
 1070SOL     OW 5203   3.199   1.227   3.432 -0.0609  0.1823 -0.2211
 1070SOL    HW1 5204   3.244   1.181   3.360  0.5787 -0.0650  0.3196
 1070SOL    HW2 5205   3.127   1.169   3.455  0.9324 -0.7553  0.6726
 1071SOL     OW 5206   0.761   8.162   5.219  0.5333  0.3686  0.3448
 1071SOL    HW1 5207   0.800   8.104   5.154  0.1413  0.4390  0.0414
 1071SOL    HW2 5208   0.778   8.250   5.186 -0.0059  0.3960  0.1367
 1072SOL     OW 5209   7.847   0.932   5.910  0.9656 -0.0811  0.0770
 1072SOL    HW1 5210   7.896   0.995   5.858  2.7588 -1.1601  0.4050
 1072SOL    HW2 5211   7.902   0.915   5.986  0.1434 -1.4148  0.4084
 1073SOL     OW 5212   5.931   7.382   3.229  0.0784 -0.3494 -0.1456
 1073SOL    HW1 5213   5.991   7.380   3.303  3.1636 -0.7849 -2.4458
 1073SOL    HW2 5214   5.861   7.322   3.253  0.2584  0.4992  2.8636
 1074SOL     OW 5215   6.162   0.532   7.359 -0.1544 -0.2035  0.4758
 1074SOL    HW1 5216   6.094   0.583   7.401 -1.2251 -0.4202 -0.9322
 1074SOL    HW2 5217   6.136   0.441   7.372  0.5983 -0.3432  1.0974
 1075SOL     OW 5218   1.041   4.430   0.785 -0.1755 -0.1208  0.6277
 1075SOL    HW1 5219   0.990   4.364   0.738 -0.3386 -0.2791  1.0275
 1075SOL    HW2 5220   1.105   4.461   0.720  0.5760 -1.4095  0.7287
 1076SOL     OW 5221   4.388   2.011   0.654 -0.3202 -0.0546 -0.0122
 1076SOL    HW1 5222   4.348   2.045   0.574 -2.1063 -3.0829 -0.5388
 1076SOL    HW2 5223   4.315   1.994   0.712  0.5059 -2.1405  0.4927
 1077SOL     OW 5224   3.525   8.224   7.813 -0.3091 -0.2409  0.4781
 1077SOL    HW1 5225   3.508   8.131   7.828 -0.9484  0.0922  2.0590
 1077SOL    HW2 5226   3.542   8.259   7.901  0.2366  1.0806 -0.1255
 1078SOL     OW 5227   2.669   3.666   3.286 -0.2895 -0.5031  0.3295
 1078SOL    HW1 5228   2.723   3.587   3.288  1.5863  0.6852 -0.4681
 1078SOL    HW2 5229   2.686   3.710   3.369 -0.1967 -0.2233  0.1638
 1079SOL     OW 5230   3.617   8.679   4.840  0.6603  0.1426 -0.4232
 1079SOL    HW1 5231   3.661   8.622   4.902 -0.7657  1.6900  2.2107
 1079SOL    HW2 5232   3.523   8.663   4.855  0.2280  2.3700 -0.2439
 1080SOL     OW 5233   2.473   7.384   8.859  0.3346 -0.2237 -0.0674
 1080SOL    HW1 5234   2.519   7.463   8.886 -0.8229  0.6480 -0.5623
 1080SOL    HW2 5235   2.540   7.316   8.859  1.0108  0.3871  1.9674
 1081SOL     OW 5236   2.200   4.127   4.784 -0.0816  0.1156  0.3075
 1081SOL    HW1 5237   2.137   4.182   4.831  1.0391  2.1811 -0.4301
 1081SOL    HW2 5238   2.166   4.120   4.695 -0.9337 -1.6573  0.7395
 1082SOL     OW 5239   1.004   5.725   2.640  0.6996  0.4726 -0.1727
 1082SOL    HW1 5240   0.969   5.814   2.644  1.9823  1.0047 -0.0706
 1082SOL    HW2 5241   1.023   5.711   2.547  0.4432  0.2797 -0.1965
 1083SOL     OW 5242   0.344   0.419   4.732  0.4312  0.2108  0.1920
 1083SOL    HW1 5243   0.403   0.475   4.680 -1.2757  1.1892 -0.7895
 1083SOL    HW2 5244   0.275   0.479   4.761 -0.5386 -1.0661  0.5864
 1084SOL     OW 5245   8.067   7.560   1.092 -0.0277 -0.2557 -0.1363
 1084SOL    HW1 5246   8.060   7.544   1.186 -2.7061  1.7078  0.1147
 1084SOL    HW2 5247   7.985   7.529   1.055 -0.0983  1.2749 -1.3972
 1085SOL     OW 5248   2.604   1.202   4.580 -0.2341 -0.2957  0.0749
 1085SOL    HW1 5249   2.676   1.243   4.628  0.0619 -0.0872 -0.5245
 1085SOL    HW2 5250   2.644   1.175   4.497 -1.1869  1.2596 -0.9498
 1086SOL     OW 5251   3.778   3.850   4.796  0.6480 -0.3640 -0.5546
 1086SOL    HW1 5252   3.811   3.760   4.793 -1.0525 -1.0151 -1.8675
 1086SOL    HW2 5253   3.699   3.844   4.851  1.8271  0.8481  1.3560
 1087SOL     OW 5254   4.417   4.903   4.519 -0.0007  0.5571  0.3411
 1087SOL    HW1 5255   4.370   4.971   4.472  0.1179  0.1210 -0.4347
 1087SOL    HW2 5256   4.369   4.892   4.601 -1.5497 -0.2222 -0.6287
 1088SOL     OW 5257   7.450   4.254   2.977  0.4739  0.6523  0.8703
 1088SOL    HW1 5258   7.541   4.281   2.990  1.5669 -1.9854 -0.5706
 1088SOL    HW2 5259   7.430   4.280   2.887  0.5562 -0.6097  0.4666
 1089SOL     OW 5260   6.159   8.425   0.116 -0.4418 -0.4662 -0.1586
 1089SOL    HW1 5261   6.096   8.420   0.045 -0.2775 -1.6558 -0.2409
 1089SOL    HW2 5262   6.239   8.458   0.075 -0.5512 -0.4844 -0.3873
 1090SOL     OW 5263   4.308   1.705   6.696  0.6050 -0.3096 -0.2170
 1090SOL    HW1 5264   4.218   1.736   6.712  0.6419  0.3799 -1.2368
 1090SOL    HW2 5265   4.337   1.671   6.781 -0.6905 -0.7451  0.0870
 1091SOL     OW 5266   0.888   3.370   7.980 -0.1284  0.0786  0.5897
 1091SOL    HW1 5267   0.810   3.405   8.022  0.0822 -0.5770  1.5467
 1091SOL    HW2 5268   0.956   3.436   7.997 -0.5096  0.7635 -0.4486
 1092SOL     OW 5269   2.390   0.936   2.891 -0.2211  0.5764 -0.3031
 1092SOL    HW1 5270   2.450   0.869   2.924  0.1071  1.8020  1.8039
 1092SOL    HW2 5271   2.341   0.964   2.968 -1.6125  1.5186 -1.4730
 1093SOL     OW 5272   1.916   2.634   1.408  0.2569  0.0190  0.4007
 1093SOL    HW1 5273   1.879   2.623   1.321 -0.4720  2.4197  0.3354
 1093SOL    HW2 5274   1.943   2.726   1.411  2.0770 -0.5141  2.0386
 1094SOL     OW 5275   0.424   3.788   1.260  0.4734  0.1303  0.5273
 1094SOL    HW1 5276   0.412   3.711   1.315 -1.3079  0.2851  0.4218
 1094SOL    HW2 5277   0.346   3.789   1.204 -0.6566  3.1409  1.9581
 1095SOL     OW 5278   1.840   5.807   1.774 -0.2683  0.2848  0.0311
 1095SOL    HW1 5279   1.754   5.795   1.814 -0.7893  0.4556 -1.0001
 1095SOL    HW2 5280   1.880   5.880   1.823 -0.8321  0.4028  0.3184
 1096SOL     OW 5281   3.996   1.759   5.508 -0.0646 -0.1035 -0.1315
 1096SOL    HW1 5282   3.998   1.664   5.497  1.0750 -0.3644  1.8382
 1096SOL    HW2 5283   4.079   1.789   5.470  0.9661 -0.2892  1.8630
 1097SOL     OW 5284   4.522   0.892   3.552  0.4506  0.3294 -0.1298
 1097SOL    HW1 5285   4.549   0.936   3.633  0.4535  0.8250 -0.3958
 1097SOL    HW2 5286   4.566   0.808   3.555  1.9701  1.0852 -0.5141
 1098SOL     OW 5287   1.497   6.371   5.908 -0.1558  0.1204 -0.1863
 1098SOL    HW1 5288   1.447   6.355   5.988 -0.8679  1.9553 -0.2153
 1098SOL    HW2 5289   1.431   6.386   5.841  0.4449 -0.5067 -0.9424
 1099SOL     OW 5290   7.998   2.410   2.806  0.2891  0.0222  0.1882
 1099SOL    HW1 5291   7.930   2.474   2.782  1.3560  1.1858  0.1469
 1099SOL    HW2 5292   8.016   2.362   2.725  0.3097  0.4807 -0.0821
 1100SOL     OW 5293   7.141   7.945   5.723 -0.9385 -0.4459 -0.4858
 1100SOL    HW1 5294   7.088   7.982   5.794  0.2783  0.2337  0.1095
 1100SOL    HW2 5295   7.092   7.964   5.643 -0.3428  2.6567 -0.2425
 1101SOL     OW 5296   2.637   2.516   4.471 -0.2076  0.7465 -0.6882
 1101SOL    HW1 5297   2.695   2.444   4.492  1.8841  2.1779 -1.2555
 1101SOL    HW2 5298   2.629   2.566   4.552 -1.8200 -0.1761 -0.2394
 1102SOL     OW 5299   1.965   1.478   3.506 -0.5478  0.3594  0.6882
 1102SOL    HW1 5300   1.921   1.441   3.582 -0.9785 -0.4082  0.0768
 1102SOL    HW2 5301   1.912   1.450   3.431  0.4479  0.2214  0.0114
 1103SOL     OW 5302   7.924   4.551   4.581 -0.1779  0.0688 -0.0820
 1103SOL    HW1 5303   7.965   4.597   4.508  0.0600 -1.2982 -0.8516
 1103SOL    HW2 5304   7.891   4.620   4.638  0.9248  1.1787 -0.7464
 1104SOL     OW 5305   2.310   0.377   6.490  0.1593  0.4740  0.1384
 1104SOL    HW1 5306   2.340   0.421   6.410 -1.2098  2.0618  0.4526
 1104SOL    HW2 5307   2.217   0.360   6.475  0.0798 -0.0013  1.0713
 1105SOL     OW 5308   8.848   6.783   1.820 -0.7184 -0.2744  0.1071
 1105SOL    HW1 5309   8.805   6.808   1.738  1.4294 -1.5854 -1.5081
 1105SOL    HW2 5310   8.913   6.851   1.835  0.1670 -1.0125 -0.3234
 1106SOL     OW 5311   8.808   4.860   5.810 -0.1366  0.7064  0.1601
 1106SOL    HW1 5312   8.826   4.931   5.871  1.7690 -0.2994  0.8469
 1106SOL    HW2 5313   8.743   4.805   5.854  0.7857  0.3071  1.0638
 1107SOL     OW 5314   6.670   1.128   6.537 -0.0053 -0.2195  0.3309
 1107SOL    HW1 5315   6.620   1.055   6.501 -0.3124  0.2066 -0.1184
 1107SOL    HW2 5316   6.622   1.206   6.510  1.0322  0.2136 -0.3255
 1108SOL     OW 5317   4.962   0.235   0.310  0.1496  0.4717 -0.5240
 1108SOL    HW1 5318   4.981   0.314   0.258  1.2580  0.4963 -0.1027
 1108SOL    HW2 5319   4.901   0.266   0.377 -0.0296  0.7969 -0.8288
 1109SOL     OW 5320   3.423   3.106   7.392 -0.8148 -0.2765  0.1508
 1109SOL    HW1 5321   3.425   3.118   7.487  0.1958  1.5560 -0.0375
 1109SOL    HW2 5322   3.405   3.194   7.357  0.2825 -0.6086 -1.3735
 1110SOL     OW 5323   7.402   2.550   0.695 -0.2970 -0.1055 -0.3062
 1110SOL    HW1 5324   7.329   2.609   0.675  0.1679  0.5241 -0.1990
 1110SOL    HW2 5325   7.430   2.576   0.783  0.5129  0.1569 -0.6286
 1111SOL     OW 5326   1.245   7.641   4.362 -0.2223 -0.6654 -0.3462
 1111SOL    HW1 5327   1.205   7.702   4.301  0.2056  0.4829  0.4846
 1111SOL    HW2 5328   1.290   7.578   4.306  2.1048  1.6366 -1.2874
 1112SOL     OW 5329   5.476   3.319   2.005 -0.0119 -0.2587 -0.3049
 1112SOL    HW1 5330   5.548   3.278   2.053 -0.2144 -0.6565 -0.3369
 1112SOL    HW2 5331   5.517   3.353   1.926  0.0995 -0.7039 -0.4414
 1113SOL     OW 5332   0.463   1.966   1.148 -0.5319 -0.4882  1.0507
 1113SOL    HW1 5333   0.451   2.000   1.059 -1.3074 -1.1992  0.8738
 1113SOL    HW2 5334   0.472   1.872   1.137 -1.1862 -0.6442  1.7709
 1114SOL     OW 5335   3.414   7.199   6.238  0.3980  0.1980  0.0486
 1114SOL    HW1 5336   3.426   7.281   6.191  1.5053 -0.9283 -1.7173
 1114SOL    HW2 5337   3.322   7.176   6.223 -0.2165  1.5607  1.4123
 1115SOL     OW 5338   3.582   3.484   6.017 -0.3994  0.2970  0.5670
 1115SOL    HW1 5339   3.639   3.531   5.955 -1.1450  0.5158  0.0306
 1115SOL    HW2 5340   3.642   3.452   6.084  0.7449 -1.4587 -1.1522
 1116SOL     OW 5341   7.769   0.636   4.409  0.1466  0.4907 -0.6445
 1116SOL    HW1 5342   7.843   0.599   4.457  0.2928 -0.3726 -1.5027
 1116SOL    HW2 5343   7.705   0.565   4.405 -0.9692  1.3706  0.5047
 1117SOL     OW 5344   6.307   5.161   1.090  0.3464  0.6099  0.1794
 1117SOL    HW1 5345   6.286   5.070   1.111 -1.3183  1.0043  0.3704
 1117SOL    HW2 5346   6.403   5.164   1.090  0.4481 -1.3122 -0.6340
 1118SOL     OW 5347   2.104   6.388   0.858 -0.8088  0.5189 -0.4409
 1118SOL    HW1 5348   2.017   6.385   0.898 -1.0844  3.6097 -0.5303
 1118SOL    HW2 5349   2.087   6.378   0.764 -0.9386  0.0371 -0.3683
 1119SOL     OW 5350   3.024   0.496   3.047 -0.1666 -0.2481 -0.0703
 1119SOL    HW1 5351   3.078   0.438   2.994  0.0597 -0.6464  0.5785
 1119SOL    HW2 5352   2.935   0.462   3.038 -0.6739  1.4887 -2.6112
 1120SOL     OW 5353   5.195   2.236   3.587 -0.6384 -0.3062 -0.2959
 1120SOL    HW1 5354   5.277   2.279   3.614  0.4766 -1.5889 -1.4868
 1120SOL    HW2 5355   5.179   2.270   3.499 -2.3045  1.1239  0.4761
 1121SOL     OW 5356   5.011   0.215   6.368 -0.1416 -0.2284  0.2940
 1121SOL    HW1 5357   4.994   0.262   6.450 -0.7045  0.4261 -0.1870
 1121SOL    HW2 5358   4.929   0.223   6.318  0.4919  0.1759 -0.7117
 1122SOL     OW 5359   1.250   4.190   8.370  0.0267  0.5890 -0.0425
 1122SOL    HW1 5360   1.329   4.180   8.423 -0.3427 -0.0849  0.3960
 1122SOL    HW2 5361   1.221   4.100   8.353 -1.5040  0.8202  1.1001
 1123SOL     OW 5362   2.576   1.825   3.984  0.5773 -0.2900 -0.3916
 1123SOL    HW1 5363   2.608   1.836   3.894 -0.1585 -0.7206 -0.7101
 1123SOL    HW2 5364   2.647   1.779   4.029  0.5603 -0.9350 -1.0033
 1124SOL     OW 5365   5.873   3.619   2.030 -0.7807 -0.3998  0.1302
 1124SOL    HW1 5366   5.856   3.714   2.032  0.5920 -0.0485 -1.9728
 1124SOL    HW2 5367   5.802   3.583   1.976 -1.4564 -0.6442  1.1512
 1125SOL     OW 5368   3.712   5.612   8.549  0.7513 -0.3700 -0.1590
 1125SOL    HW1 5369   3.653   5.683   8.521  1.6977  0.2859 -0.5238
 1125SOL    HW2 5370   3.653   5.547   8.588 -0.3988 -0.4285 -1.8721
 1126SOL     OW 5371   7.778   1.339   3.036  0.2049 -0.2209  0.7890
 1126SOL    HW1 5372   7.826   1.265   3.075  1.4193 -0.0581 -0.3364
 1126SOL    HW2 5373   7.845   1.389   2.989 -0.9454  0.4564 -0.1779
 1127SOL     OW 5374   2.230   0.824   7.867  0.1773 -0.1546  0.0652
 1127SOL    HW1 5375   2.259   0.909   7.901 -0.2558 -0.0242  0.1140
 1127SOL    HW2 5376   2.265   0.761   7.930 -1.8499  0.1807  1.6260
 1128SOL     OW 5377   1.686   7.840   4.700  0.6777 -0.1962 -0.2445
 1128SOL    HW1 5378   1.721   7.752   4.682 -1.6559 -0.7852 -2.5184
 1128SOL    HW2 5379   1.621   7.826   4.769 -0.9000 -0.6471 -1.7524
 1129SOL     OW 5380   2.897   8.860   5.171 -0.1903  0.4557 -0.2340
 1129SOL    HW1 5381   2.945   8.861   5.253  0.9228  0.5792 -0.8664
 1129SOL    HW2 5382   2.947   8.918   5.113  0.2118 -1.1780 -1.6208
 1130SOL     OW 5383   8.829   4.638   7.956 -0.5247  0.0485 -0.3428
 1130SOL    HW1 5384   8.824   4.551   7.997 -2.5361 -0.1963 -1.0146
 1130SOL    HW2 5385   8.845   4.698   8.029 -0.0961 -0.7747  0.2579
 1131SOL     OW 5386   6.157   4.382   6.201  0.0974  0.1197 -1.1811
 1131SOL    HW1 5387   6.151   4.346   6.289  0.2711  2.0907 -0.2997
 1131SOL    HW2 5388   6.240   4.349   6.167  1.3001  1.3078  0.4068
 1132SOL     OW 5389   1.796   4.288   5.258 -0.2517  0.2455 -0.0007
 1132SOL    HW1 5390   1.773   4.371   5.300  2.0230  0.2007  1.5352
 1132SOL    HW2 5391   1.821   4.313   5.169 -1.2124  0.9380 -0.1001
 1133SOL     OW 5392   2.821   2.682   4.854 -0.1047  0.2990  0.5037
 1133SOL    HW1 5393   2.842   2.622   4.926 -3.1176 -2.0679 -0.3826
 1133SOL    HW2 5394   2.839   2.632   4.775 -1.5617  1.0048 -0.3103
 1134SOL     OW 5395   8.375   5.975   1.997 -0.2368  0.0121 -0.6028
 1134SOL    HW1 5396   8.289   5.981   1.956  0.5194 -1.0749 -2.4560
 1134SOL    HW2 5397   8.415   6.060   1.978 -0.7720  0.4173  0.0227
 1135SOL     OW 5398   7.302   8.781   0.994  0.6921 -0.4975 -0.0723
 1135SOL    HW1 5399   7.394   8.808   0.994  0.3835  0.6203  0.0164
 1135SOL    HW2 5400   7.271   8.804   1.082 -0.1953  1.0974 -0.7542
 1136SOL     OW 5401   3.905   0.568   0.352 -0.4277  0.0394 -0.1840
 1136SOL    HW1 5402   3.844   0.522   0.410  0.1362  1.0326  1.2817
 1136SOL    HW2 5403   3.928   0.504   0.285  0.0388 -1.7252  1.5513
 1137SOL     OW 5404   6.695   6.600   4.266 -0.1069 -0.4494  0.3908
 1137SOL    HW1 5405   6.691   6.514   4.224 -1.5967 -1.0611  1.6994
 1137SOL    HW2 5406   6.779   6.601   4.311 -0.8971 -2.1171  2.0675
 1138SOL     OW 5407   2.129   2.394   8.048  0.2172 -0.0139 -0.8323
 1138SOL    HW1 5408   2.160   2.461   8.109  0.3661  0.2302 -1.1733
 1138SOL    HW2 5409   2.037   2.381   8.071 -0.0945  1.0370 -1.4096
 1139SOL     OW 5410   6.136   7.894   3.800  0.0146 -0.0701  0.2953
 1139SOL    HW1 5411   6.194   7.958   3.760  0.8042 -0.9521  0.0032
 1139SOL    HW2 5412   6.048   7.927   3.781  0.3945  0.4407 -0.6435
 1140SOL     OW 5413   2.910   5.287   7.293  0.5032 -0.9625 -0.1478
 1140SOL    HW1 5414   2.883   5.267   7.204  1.5128 -0.0994 -0.6614
 1140SOL    HW2 5415   2.967   5.215   7.318 -0.8508 -1.9231  0.3352
 1141SOL     OW 5416   7.034   2.682   5.719 -0.0416  0.1093 -0.2301
 1141SOL    HW1 5417   7.007   2.633   5.641 -0.2323 -1.5199  0.8009
 1141SOL    HW2 5418   6.966   2.748   5.731 -1.5783 -1.4346  0.1048
 1142SOL     OW 5419   7.463   5.548   0.214 -0.5620  0.6428  0.3134
 1142SOL    HW1 5420   7.388   5.495   0.241  0.2286 -0.8153 -0.2345
 1142SOL    HW2 5421   7.509   5.493   0.150  2.0444  0.6505  2.0413
 1143SOL     OW 5422   5.548   3.731   4.985  0.0121  0.5264  0.0475
 1143SOL    HW1 5423   5.565   3.639   4.965 -0.1028  0.6453 -0.6301
 1143SOL    HW2 5424   5.465   3.729   5.033 -0.2212  0.3112 -0.3543
 1144SOL     OW 5425   8.843   8.550   2.475  0.1172 -0.3006  0.3065
 1144SOL    HW1 5426   8.877   8.627   2.521  1.5862 -0.0305 -1.1553
 1144SOL    HW2 5427   8.895   8.477   2.509 -0.0347 -0.3758  0.3784
 1145SOL     OW 5428   7.796   7.880   0.509 -0.0288 -0.0888  0.0306
 1145SOL    HW1 5429   7.860   7.939   0.471  0.4583  0.5577  1.7410
 1145SOL    HW2 5430   7.795   7.803   0.451  0.5392  0.8829 -1.3068
 1146SOL     OW 5431   8.647   6.127   3.231  0.5230  0.0734  0.6547
 1146SOL    HW1 5432   8.634   6.190   3.160  1.5110 -0.5818 -0.1492
 1146SOL    HW2 5433   8.559   6.106   3.261 -0.0290 -0.7358 -1.3845
 1147SOL     OW 5434   5.274   6.402   0.295  0.5511 -0.5135  0.2933
 1147SOL    HW1 5435   5.299   6.473   0.355  0.3499 -0.3372  0.1716
 1147SOL    HW2 5436   5.189   6.372   0.327  1.4817 -1.9904  1.4868
 1148SOL     OW 5437   3.628   7.956   8.770  0.0185 -0.1839 -0.2594
 1148SOL    HW1 5438   3.704   7.978   8.824  0.7914 -0.6551 -1.1173
 1148SOL    HW2 5439   3.663   7.949   8.681 -0.8606 -1.2337 -0.5522
 1149SOL     OW 5440   3.962   6.458   8.871  0.4323 -0.4313  0.4791
 1149SOL    HW1 5441   3.923   6.526   8.817  3.3553  0.6670 -0.4389
 1149SOL    HW2 5442   3.916   6.378   8.846 -1.5390  0.8162 -0.0787
 1150SOL     OW 5443   4.357   6.411   6.290 -0.4913  0.1793 -0.0115
 1150SOL    HW1 5444   4.443   6.402   6.249 -0.0083 -0.4242  1.1195
 1150SOL    HW2 5445   4.372   6.467   6.366 -0.7671 -1.2014  1.0980
 1151SOL     OW 5446   2.344   7.848   0.442  0.7276  0.2310  0.1630
 1151SOL    HW1 5447   2.320   7.939   0.422  1.6689  0.5667  0.4837
 1151SOL    HW2 5448   2.281   7.821   0.508 -0.6761  0.0386 -1.1995
 1152SOL     OW 5449   7.845   8.705   4.682 -0.0417  0.2643 -0.1160
 1152SOL    HW1 5450   7.884   8.618   4.671 -1.2288 -0.4343  0.9904
 1152SOL    HW2 5451   7.895   8.761   4.622 -1.2144 -1.7511 -3.1782
 1153SOL     OW 5452   0.192   7.951   1.194 -0.7726  0.4702 -0.2147
 1153SOL    HW1 5453   0.215   8.030   1.242 -0.5342  1.4900 -1.9123
 1153SOL    HW2 5454   0.102   7.967   1.164 -1.2483 -0.5351  0.6317
 1154SOL     OW 5455   4.497   5.207   5.114 -0.4453 -0.5594 -0.5806
 1154SOL    HW1 5456   4.564   5.156   5.160  0.5150 -1.0634 -2.4184
 1154SOL    HW2 5457   4.488   5.287   5.166  1.0743 -0.7876  0.1085
 1155SOL     OW 5458   8.380   7.382   0.348 -0.1297  0.4160 -0.0797
 1155SOL    HW1 5459   8.359   7.311   0.408  1.6167 -0.0639 -0.0018
 1155SOL    HW2 5460   8.396   7.457   0.404 -0.8378  0.5838 -0.0960
 1156SOL     OW 5461   0.263   5.589   0.923 -0.3133 -0.1534 -0.4516
 1156SOL    HW1 5462   0.245   5.618   0.833 -0.4224 -1.5992 -0.9189
 1156SOL    HW2 5463   0.248   5.667   0.976 -2.3654  0.2148 -1.4478
 1157SOL     OW 5464   2.317   5.541   4.289  0.0262  0.0837 -0.5367
 1157SOL    HW1 5465   2.239   5.574   4.245 -0.3951 -0.1040  0.0493
 1157SOL    HW2 5466   2.283   5.492   4.364  0.5711 -2.2931 -1.7248
 1158SOL     OW 5467   0.065   3.509   2.692 -0.2261  0.2809 -0.3491
 1158SOL    HW1 5468   0.013   3.491   2.613  1.1539  0.0600 -1.2444
 1158SOL    HW2 5469   0.119   3.584   2.667 -1.9376  2.2388  1.4553
 1159SOL     OW 5470   5.131   6.142   2.536  0.5808  0.6950  0.0286
 1159SOL    HW1 5471   5.069   6.190   2.482 -1.1498 -0.6839  0.6833
 1159SOL    HW2 5472   5.160   6.205   2.602  0.3778  1.5316 -0.6649
 1160SOL     OW 5473   5.401   4.859   3.325 -0.3283 -0.6580 -0.0963
 1160SOL    HW1 5474   5.366   4.937   3.282 -0.6954  0.3813  1.9869
 1160SOL    HW2 5475   5.339   4.789   3.302 -0.0194 -0.3792 -1.9454
 1161SOL     OW 5476   8.268   2.084   4.382  0.5819 -0.8855  0.3958
 1161SOL    HW1 5477   8.203   2.031   4.335 -1.0332 -0.0007  1.5282
 1161SOL    HW2 5478   8.310   2.022   4.442  0.4143 -1.3673  0.0223
 1162SOL     OW 5479   2.537   2.522   5.643 -0.3942 -0.0911  0.3633
 1162SOL    HW1 5480   2.620   2.484   5.613 -0.9935 -0.1582 -1.2542
 1162SOL    HW2 5481   2.561   2.569   5.724  1.4446  0.7564 -0.6057
 1163SOL     OW 5482   7.323   1.442   4.378 -0.3201 -0.1128  0.1343
 1163SOL    HW1 5483   7.267   1.419   4.453 -0.6820  0.5491  0.0739
 1163SOL    HW2 5484   7.332   1.360   4.329 -2.2292  0.0131 -0.5047
 1164SOL     OW 5485   6.947   5.065   6.350 -0.2981  0.1581  0.1846
 1164SOL    HW1 5486   6.890   5.025   6.416 -1.3975  0.5972 -0.4597
 1164SOL    HW2 5487   6.956   5.156   6.379  0.3043  0.0277  0.4213
 1165SOL     OW 5488   0.016   8.578   4.161 -0.2308  0.0131  0.4344
 1165SOL    HW1 5489  -0.068   8.563   4.205 -0.7225 -1.0399 -0.8023
 1165SOL    HW2 5490   0.015   8.670   4.136 -0.1819  0.4935  2.0721
 1166SOL     OW 5491   0.821   8.403   5.104 -0.9566  0.4447 -0.4417
 1166SOL    HW1 5492   0.828   8.382   5.011  1.3083  1.6273 -0.6106
 1166SOL    HW2 5493   0.911   8.412   5.133 -1.6415  1.7693  1.4716
 1167SOL     OW 5494   5.482   0.476   8.693 -0.0684 -0.8341  0.4513
 1167SOL    HW1 5495   5.435   0.522   8.762 -0.2714  2.2418 -1.5350
 1167SOL    HW2 5496   5.421   0.475   8.619  1.4531 -0.4663 -0.8758
 1168SOL     OW 5497   2.059   5.732   6.137 -0.1616  0.1383 -0.4106
 1168SOL    HW1 5498   1.999   5.801   6.108 -0.3449 -0.4249 -1.4607
 1168SOL    HW2 5499   2.061   5.739   6.232 -1.1590  0.7813 -0.4243
 1169SOL     OW 5500   4.885   7.490   2.545  0.4034  0.1029  0.2821
 1169SOL    HW1 5501   4.847   7.516   2.461 -0.5095  0.7601  0.8896
 1169SOL    HW2 5502   4.923   7.404   2.528 -0.9147 -0.3554 -0.4789
 1170SOL     OW 5503   7.014   0.924   7.555 -0.2414  0.0324 -0.3486
 1170SOL    HW1 5504   6.935   0.890   7.513 -0.6022  1.2285 -0.6985
 1170SOL    HW2 5505   7.000   0.910   7.648  0.2438 -2.0054 -0.5486
 1171SOL     OW 5506   3.996   7.643   1.303 -0.1554 -0.1260 -0.2185
 1171SOL    HW1 5507   3.965   7.564   1.258  0.3506  0.5390 -1.8090
 1171SOL    HW2 5508   4.085   7.657   1.268 -0.0961  0.9249  0.3239
 1172SOL     OW 5509   5.114   8.044   8.300  0.3470  0.0230 -0.0330
 1172SOL    HW1 5510   5.120   8.110   8.369 -1.1792  0.3968 -0.2124
 1172SOL    HW2 5511   5.094   8.095   8.221  1.9229 -0.4111 -0.7478
 1173SOL     OW 5512   2.623   7.407   3.865  0.0811 -0.3472 -0.5586
 1173SOL    HW1 5513   2.566   7.335   3.840  1.0421 -0.7064 -1.8554
 1173SOL    HW2 5514   2.570   7.486   3.851 -0.5825 -0.7483 -0.2993
 1174SOL     OW 5515   3.474   0.933   5.883 -0.2069 -0.1216 -0.2346
 1174SOL    HW1 5516   3.484   0.843   5.915 -2.5868  0.0382  1.2936
 1174SOL    HW2 5517   3.518   0.987   5.949  1.2279 -0.1369 -1.1558
 1175SOL     OW 5518   0.798   6.243   0.369  0.2081 -0.2692  0.5812
 1175SOL    HW1 5519   0.718   6.225   0.319  0.8008 -2.1330  0.2268
 1175SOL    HW2 5520   0.859   6.281   0.306 -0.3289  1.1071  0.8407
 1176SOL     OW 5521   8.649   1.779   7.684  0.4207 -0.7543  0.0494
 1176SOL    HW1 5522   8.585   1.850   7.679 -0.1788 -1.1609  1.5088
 1176SOL    HW2 5523   8.731   1.823   7.708 -0.2760 -0.6607  2.5148
 1177SOL     OW 5524   8.048   8.043   5.252  0.1005 -0.2391 -0.6179
 1177SOL    HW1 5525   8.144   8.042   5.253  0.1313  1.2525 -0.2724
 1177SOL    HW2 5526   8.024   8.035   5.344 -0.0464  1.4964 -0.4860
 1178SOL     OW 5527   1.871   6.713   4.803  0.0879  0.0591 -0.0052
 1178SOL    HW1 5528   1.907   6.732   4.889 -0.4201 -1.5158  0.5920
 1178SOL    HW2 5529   1.912   6.777   4.744 -0.3855  1.8983  1.5605
 1179SOL     OW 5530   3.365   8.491   6.077 -0.5379 -0.4988 -0.4611
 1179SOL    HW1 5531   3.441   8.463   6.026  0.0402  0.7332 -0.3129
 1179SOL    HW2 5532   3.353   8.421   6.142 -0.0491 -1.1032 -1.0042
 1180SOL     OW 5533   7.706   8.548   5.573  0.3838  0.4444  0.7488
 1180SOL    HW1 5534   7.781   8.492   5.550 -1.0914 -1.3062 -0.0252
 1180SOL    HW2 5535   7.695   8.535   5.667 -0.6440 -1.6097  0.4172
 1181SOL     OW 5536   8.889   2.363   5.271 -0.0493  0.4341 -0.1643
 1181SOL    HW1 5537   8.812   2.323   5.310 -0.5169  1.3091 -0.1656
 1181SOL    HW2 5538   8.862   2.452   5.248  1.0177  0.8449  0.0623
 1182SOL     OW 5539   0.781   3.861   7.116 -0.7016  0.3201  0.2905
 1182SOL    HW1 5540   0.823   3.889   7.034 -0.0522 -1.8040 -0.1617
 1182SOL    HW2 5541   0.745   3.774   7.096  1.2944 -1.2185  2.8017
 1183SOL     OW 5542   2.284   7.318   3.902 -0.3942 -0.3187 -0.6064
 1183SOL    HW1 5543   2.342   7.278   3.837 -0.0705 -0.1660 -0.4103
 1183SOL    HW2 5544   2.281   7.411   3.877  0.4819 -0.0703  0.1454
 1184SOL     OW 5545   7.791   7.851   1.299 -0.0435 -0.8188  0.3864
 1184SOL    HW1 5546   7.874   7.898   1.293 -0.8289  0.4978 -0.6975
 1184SOL    HW2 5547   7.811   7.764   1.264  1.1623 -0.9692  1.3656
 1185SOL     OW 5548   1.376   3.691   0.260 -0.4397 -0.0097 -0.0023
 1185SOL    HW1 5549   1.427   3.610   0.259  0.0179  0.2670  0.5819
 1185SOL    HW2 5550   1.439   3.760   0.240 -1.0850  0.0912 -1.9599
 1186SOL     OW 5551   5.036   5.761   3.308  0.2402 -0.4113 -0.0277
 1186SOL    HW1 5552   5.069   5.826   3.370 -0.4545 -0.7266  0.6835
 1186SOL    HW2 5553   5.002   5.690   3.362 -0.3775 -0.6938 -0.7607
 1187SOL     OW 5554   7.859   8.756   4.955 -0.3601  0.0050 -0.6636
 1187SOL    HW1 5555   7.944   8.714   4.967 -0.6435 -0.7111 -1.0961
 1187SOL    HW2 5556   7.843   8.750   4.861 -0.5188  0.8788 -0.7009
 1188SOL     OW 5557   8.487   1.284   8.348  0.0181  0.0817 -0.7592
 1188SOL    HW1 5558   8.535   1.366   8.354 -0.2662  0.1904  0.0603
 1188SOL    HW2 5559   8.475   1.271   8.254 -0.5348  1.3283 -0.8782
 1189SOL     OW 5560   1.771   0.565   4.655  0.0002  0.3849 -0.3835
 1189SOL    HW1 5561   1.800   0.502   4.589  1.5733 -0.4681  1.0571
 1189SOL    HW2 5562   1.763   0.514   4.736  2.1111  2.1379  1.0382
 1190SOL     OW 5563   8.596   0.614   0.608  0.3611  0.2002 -0.2504
 1190SOL    HW1 5564   8.577   0.696   0.562 -1.4802 -0.3169 -0.4986
 1190SOL    HW2 5565   8.624   0.555   0.539 -0.6495 -0.0453 -0.4772
 1191SOL     OW 5566   1.174   6.420   3.741 -0.2061  0.4433  0.1616
 1191SOL    HW1 5567   1.137   6.334   3.762 -0.0407  0.3788  0.1891
 1191SOL    HW2 5568   1.117   6.482   3.786  0.8585  0.2611  1.8827
 1192SOL     OW 5569   7.282   6.323   2.978 -0.2785 -0.2519 -0.0472
 1192SOL    HW1 5570   7.259   6.292   3.066  2.1691 -1.1367  0.3552
 1192SOL    HW2 5571   7.199   6.323   2.930 -1.1659 -2.9323  1.3166
 1193SOL     OW 5572   8.361   5.383   7.640 -0.4140  0.0424  0.4204
 1193SOL    HW1 5573   8.317   5.298   7.644  0.0476 -0.1842  0.7040
 1193SOL    HW2 5574   8.298   5.441   7.597 -0.6539 -0.4919  0.0448
 1194SOL     OW 5575   8.232   3.286   1.951 -0.0743 -0.5089  0.0224
 1194SOL    HW1 5576   8.226   3.273   2.046  0.6892 -0.2864  0.1084
 1194SOL    HW2 5577   8.147   3.323   1.927 -0.4236 -0.9440  0.5529
 1195SOL     OW 5578   0.428   5.421   8.801  0.0512 -0.6605  0.1889
 1195SOL    HW1 5579   0.446   5.447   8.710  1.3499 -0.4377  0.4836
 1195SOL    HW2 5580   0.515   5.401   8.837 -0.5842 -2.3015  0.9182
 1196SOL     OW 5581   4.673   4.598   8.814 -0.0643 -0.5498 -0.5095
 1196SOL    HW1 5582   4.714   4.512   8.811  2.2697  0.4741 -0.2652
 1196SOL    HW2 5583   4.694   4.632   8.901 -1.3529  0.0968 -0.4242
 1197SOL     OW 5584   5.222   1.150   8.169 -0.3870 -0.1570 -0.2472
 1197SOL    HW1 5585   5.182   1.095   8.101 -1.0520  0.2368 -0.1866
 1197SOL    HW2 5586   5.292   1.196   8.124  1.0300 -1.9750 -0.0179
 1198SOL     OW 5587   4.892   8.400   8.352 -0.2033  0.2361  0.3717
 1198SOL    HW1 5588   4.976   8.445   8.367 -0.7732  1.2016  0.7774
 1198SOL    HW2 5589   4.831   8.471   8.334 -0.6614 -0.5473 -1.3327
 1199SOL     OW 5590   1.221   8.490   1.014 -0.5443  0.0161  0.0320
 1199SOL    HW1 5591   1.231   8.428   0.942 -0.2563 -0.3860  0.4162
 1199SOL    HW2 5592   1.296   8.549   1.005 -0.6728  0.1478 -0.1763
 1200SOL     OW 5593   6.547   0.397   0.404  0.5112 -0.0933 -0.0517
 1200SOL    HW1 5594   6.577   0.411   0.494  0.1187 -0.2457  0.1044
 1200SOL    HW2 5595   6.486   0.323   0.411  2.2851 -1.7146 -0.7904
 1201SOL     OW 5596   6.552   4.422   0.669 -0.3906 -0.4493  0.2750
 1201SOL    HW1 5597   6.480   4.468   0.713 -0.2778 -0.7431  0.7683
 1201SOL    HW2 5598   6.561   4.340   0.717 -0.1577 -0.7020 -0.1997
 1202SOL     OW 5599   6.221   8.393   5.181  0.1972  0.3176 -0.1138
 1202SOL    HW1 5600   6.223   8.352   5.094 -1.1592  1.7337 -0.8745
 1202SOL    HW2 5601   6.312   8.414   5.200  0.7305 -1.5106 -0.4145
 1203SOL     OW 5602   8.490   1.559   8.050  0.4872 -0.2556 -0.3049
 1203SOL    HW1 5603   8.532   1.479   8.081  0.7376 -0.3295 -0.8321
 1203SOL    HW2 5604   8.502   1.558   7.955  1.2844  0.8495 -0.2345
 1204SOL     OW 5605   1.362   3.267   6.968 -0.7030 -0.2787 -0.0110
 1204SOL    HW1 5606   1.447   3.309   6.973 -1.6389  1.6396  0.5449
 1204SOL    HW2 5607   1.300   3.332   7.001 -2.8539 -0.1738 -3.6617
 1205SOL     OW 5608   6.428   8.363   0.394 -0.4597  0.1163 -0.1256
 1205SOL    HW1 5609   6.405   8.272   0.376 -1.3606  0.4560 -0.7387
 1205SOL    HW2 5610   6.522   8.360   0.413 -0.2067 -0.7658 -1.3824
 1206SOL     OW 5611   1.413   4.383   6.355  0.8642 -0.3660  0.0776
 1206SOL    HW1 5612   1.405   4.372   6.260  1.9901  0.8289 -0.2027
 1206SOL    HW2 5613   1.356   4.457   6.376  1.6052  0.2076  0.1046
 1207SOL     OW 5614   1.666   1.913   0.469  0.4589 -0.4294 -0.0006
 1207SOL    HW1 5615   1.608   1.872   0.405 -0.4767  0.2901  0.3700
 1207SOL    HW2 5616   1.702   1.989   0.425 -1.1005  0.7447  0.6747
 1208SOL     OW 5617   2.884   7.638   3.972 -0.0177 -0.4411  0.3694
 1208SOL    HW1 5618   2.968   7.603   3.942  0.9834  1.6518  0.5741
 1208SOL    HW2 5619   2.907   7.713   4.027 -2.0302  0.9082 -0.4802
 1209SOL     OW 5620   1.669   3.892   1.543  0.1303  1.3179 -0.6086
 1209SOL    HW1 5621   1.606   3.877   1.614 -0.8340 -0.6524 -1.7860
 1209SOL    HW2 5622   1.751   3.910   1.588  0.0765 -1.9786  1.1604
 1210SOL     OW 5623   6.785   6.805   3.222 -0.0103  0.3999 -0.1942
 1210SOL    HW1 5624   6.840   6.790   3.299  0.3111 -1.6260 -0.7795
 1210SOL    HW2 5625   6.696   6.809   3.258 -0.2739 -3.7591  0.1147
 1211SOL     OW 5626   6.405   3.614   2.568  0.0648  0.3384  0.1389
 1211SOL    HW1 5627   6.434   3.701   2.541 -1.0894 -0.4632 -4.5236
 1211SOL    HW2 5628   6.483   3.560   2.563  0.6638  0.8554  2.5112
 1212SOL     OW 5629   2.614   7.652   4.037  0.2505 -0.1926  0.1461
 1212SOL    HW1 5630   2.695   7.627   3.994  0.0372 -1.5922  0.5293
 1212SOL    HW2 5631   2.548   7.651   3.968 -0.5336 -4.5094  0.7180
 1213SOL     OW 5632   4.700   5.594   5.592 -0.1592  0.2768 -0.2890
 1213SOL    HW1 5633   4.775   5.653   5.591  0.2367 -0.2127  0.0739
 1213SOL    HW2 5634   4.705   5.547   5.508 -0.4310  0.6860 -0.5438
 1214SOL     OW 5635   7.011   7.287   7.358 -0.4867  0.3362  0.6116
 1214SOL    HW1 5636   6.968   7.337   7.427  0.4335  0.5852  1.0181
 1214SOL    HW2 5637   7.078   7.346   7.324 -0.0243 -0.2775  0.4435
 1215SOL     OW 5638   2.389   3.287   4.894  0.5876 -0.4775 -0.0485
 1215SOL    HW1 5639   2.477   3.298   4.931  0.1607  1.1702  0.5784
 1215SOL    HW2 5640   2.334   3.267   4.969  0.2745 -0.5973 -0.3076
 1216SOL     OW 5641   2.470   8.332   0.717 -0.0214 -0.2018  0.5640
 1216SOL    HW1 5642   2.486   8.353   0.625  0.5379  1.3236  0.9758
 1216SOL    HW2 5643   2.554   8.349   0.760 -0.5239  0.0024  1.5006
 1217SOL     OW 5644   4.462   6.093   5.886 -0.2680  0.3755 -0.1110
 1217SOL    HW1 5645   4.557   6.090   5.898 -0.4178  0.3282  1.0917
 1217SOL    HW2 5646   4.449   6.164   5.823  0.6206 -0.2128 -0.9919
 1218SOL     OW 5647   4.014   8.350   2.110  0.0634  0.2441 -0.5364
 1218SOL    HW1 5648   4.013   8.354   2.206  0.0885 -0.8036 -0.4733
 1218SOL    HW2 5649   3.939   8.402   2.082  0.5719  1.2946  0.0098
 1219SOL     OW 5650   5.937   2.733   7.832  0.3289 -0.2253  0.0213
 1219SOL    HW1 5651   5.989   2.783   7.768 -0.5204 -1.0995 -1.4064
 1219SOL    HW2 5652   5.878   2.797   7.871 -0.3930  0.0309 -1.4169
 1220SOL     OW 5653   6.053   7.330   0.379 -0.6725 -0.1208  0.1518
 1220SOL    HW1 5654   6.114   7.269   0.339  1.1355  1.4581  0.3732
 1220SOL    HW2 5655   6.001   7.276   0.440  0.4181 -1.5155 -0.1155
 1221SOL     OW 5656   5.160   4.355   8.392  0.1276  0.0592  0.3882
 1221SOL    HW1 5657   5.157   4.265   8.359 -0.9121 -0.6245  2.2150
 1221SOL    HW2 5658   5.114   4.406   8.325  0.5313 -0.7902 -0.5722
 1222SOL     OW 5659   5.594   8.684   4.924  0.1231 -0.3304 -0.4598
 1222SOL    HW1 5660   5.683   8.697   4.957 -0.6362  0.5528  1.3738
 1222SOL    HW2 5661   5.552   8.628   4.990 -1.3913  1.3291  0.0539
 1223SOL     OW 5662   6.129   8.755   8.276 -0.6691  0.4315 -0.0869
 1223SOL    HW1 5663   6.221   8.740   8.256 -0.1321  0.3600  2.2219
 1223SOL    HW2 5664   6.088   8.669   8.268 -0.0615  0.0179  1.1042
 1224SOL     OW 5665   7.693   4.839   2.604  0.3172  0.5639 -0.9670
 1224SOL    HW1 5666   7.671   4.778   2.674  0.8573  1.3546 -0.0879
 1224SOL    HW2 5667   7.709   4.922   2.649  3.7147  0.4001 -1.6303
 1225SOL     OW 5668   2.539   8.229   4.365 -0.1201 -0.2656 -0.8808
 1225SOL    HW1 5669   2.504   8.312   4.398  1.0113  0.2299 -0.8822
 1225SOL    HW2 5670   2.603   8.255   4.298  0.8559 -1.0995 -0.3010
 1226SOL     OW 5671   7.727   6.659   1.013 -0.1371 -0.3316  0.2595
 1226SOL    HW1 5672   7.739   6.744   0.971  1.2906 -0.8705 -0.4929
 1226SOL    HW2 5673   7.760   6.671   1.102  0.6706 -0.2461 -0.0397
 1227SOL     OW 5674   1.396   1.056   4.307 -0.2229  0.3368 -0.4205
 1227SOL    HW1 5675   1.459   1.035   4.376  0.0114 -0.2839 -0.8111
 1227SOL    HW2 5676   1.326   0.991   4.318 -0.5276  0.6780 -0.3284
 1228SOL     OW 5677   6.107   1.574   3.461  0.4793  0.0876  0.2088
 1228SOL    HW1 5678   6.081   1.578   3.554  0.9445 -0.0932  0.3478
 1228SOL    HW2 5679   6.174   1.506   3.458 -1.8194 -2.2868 -0.8157
 1229SOL     OW 5680   0.761   1.308   0.602 -0.5359 -0.0425  0.1146
 1229SOL    HW1 5681   0.852   1.281   0.587 -0.5653 -0.0060 -0.1456
 1229SOL    HW2 5682   0.731   1.253   0.674 -0.5602 -0.6478 -0.3413
 1230SOL     OW 5683   1.999   8.437   1.892 -0.2392  0.2851  0.2491
 1230SOL    HW1 5684   1.945   8.362   1.867 -1.1563  0.2048  2.3173
 1230SOL    HW2 5685   2.088   8.402   1.898 -0.3233 -0.1451 -0.7686
 1231SOL     OW 5686   0.200   1.740   5.950 -0.7106 -0.2540  0.2879
 1231SOL    HW1 5687   0.238   1.725   5.864 -0.8308  3.5821 -0.5839
 1231SOL    HW2 5688   0.275   1.745   6.009 -0.6683 -3.9476  0.7856
 1232SOL     OW 5689   6.822   6.329   7.554  0.1892  0.6637 -0.0972
 1232SOL    HW1 5690   6.905   6.323   7.600 -0.0924 -0.1688  0.3238
 1232SOL    HW2 5691   6.762   6.368   7.618  0.1142  0.7157 -0.1988
 1233SOL     OW 5692   3.900   2.632   0.325 -0.0222  0.4188 -0.1965
 1233SOL    HW1 5693   3.940   2.659   0.407 -1.3463 -0.8782  0.9280
 1233SOL    HW2 5694   3.952   2.558   0.296  0.1028  0.5247 -0.2465
 1234SOL     OW 5695   7.755   2.190   3.543 -0.4956  0.1586 -0.5005
 1234SOL    HW1 5696   7.754   2.192   3.639 -1.5364 -0.9127 -0.4614
 1234SOL    HW2 5697   7.727   2.101   3.521 -1.2349  0.6864 -1.8014
 1235SOL     OW 5698   6.603   3.442   5.088  0.1787 -0.6712 -0.1979
 1235SOL    HW1 5699   6.589   3.522   5.038  0.1580  0.4231  1.4762
 1235SOL    HW2 5700   6.524   3.390   5.073 -0.3043  0.1141 -0.4213
 1236SOL     OW 5701   6.866   2.971   6.200 -0.0434 -0.6141  0.8956
 1236SOL    HW1 5702   6.773   2.967   6.181 -0.3980  2.2276  1.4957
 1236SOL    HW2 5703   6.883   2.898   6.258 -2.3136 -0.1832  2.2227
 1237SOL     OW 5704   3.093   3.193   7.167  0.3999 -0.3531  0.7466
 1237SOL    HW1 5705   3.093   3.163   7.258 -0.6721  0.9810  1.2213
 1237SOL    HW2 5706   3.117   3.286   7.172 -1.8614  0.3478 -0.0623
 1238SOL     OW 5707   2.102   7.686   1.054 -0.0502 -0.3855  0.0845
 1238SOL    HW1 5708   2.066   7.608   1.011 -0.0904  0.6842 -1.9456
 1238SOL    HW2 5709   2.025   7.737   1.079 -0.0032 -0.4144  0.2918
 1239SOL     OW 5710   1.874   0.041   1.632 -0.2457 -0.1202  0.0057
 1239SOL    HW1 5711   1.930  -0.007   1.570 -2.7253  0.3224 -2.8344
 1239SOL    HW2 5712   1.824  -0.027   1.676  0.1334 -0.3697  0.0573
 1240SOL     OW 5713   7.500   5.413   8.425 -0.2163 -0.7277 -0.1069
 1240SOL    HW1 5714   7.546   5.330   8.417  0.2059 -0.5224  0.1876
 1240SOL    HW2 5715   7.419   5.400   8.376  0.5640 -0.7909 -1.4436
 1241SOL     OW 5716   4.433   0.126   2.983  0.2833  0.4380  0.1926
 1241SOL    HW1 5717   4.489   0.172   3.045 -0.0110  0.5336  0.3884
 1241SOL    HW2 5718   4.346   0.127   3.023 -0.2758  1.9167 -0.9402
 1242SOL     OW 5719   4.095   2.153   0.791 -0.6364  0.3156 -0.5002
 1242SOL    HW1 5720   4.069   2.068   0.826  0.3739  0.2061  0.0581
 1242SOL    HW2 5721   4.074   2.150   0.698  1.3189 -1.3701 -0.9430
 1243SOL     OW 5722   6.651   6.401   3.826  0.1012 -0.5437  0.0086
 1243SOL    HW1 5723   6.745   6.387   3.829 -0.0441 -1.5728  0.2620
 1243SOL    HW2 5724   6.613   6.317   3.851 -0.8862 -0.1354 -0.0409
 1244SOL     OW 5725   2.999   1.407   4.385  0.4157  0.1311 -0.2609
 1244SOL    HW1 5726   3.025   1.458   4.461 -0.0562 -0.9476  0.6507
 1244SOL    HW2 5727   3.027   1.318   4.405 -1.0263 -0.4495 -0.6670
 1245SOL     OW 5728   1.574   1.104   4.022  0.5060 -0.4049  0.3937
 1245SOL    HW1 5729   1.478   1.114   4.025  0.3782 -0.5909 -1.8116
 1245SOL    HW2 5730   1.589   1.012   4.041  0.1918 -0.5535 -0.0751
 1246SOL     OW 5731   4.583   3.709   4.745 -0.1479 -0.2347 -0.5331
 1246SOL    HW1 5732   4.651   3.769   4.713  1.9498 -1.9327  0.4342
 1246SOL    HW2 5733   4.571   3.647   4.673  1.1498 -1.3259  0.1422
 1247SOL     OW 5734   5.696   3.715   5.549  0.4538 -0.5162 -0.1236
 1247SOL    HW1 5735   5.628   3.659   5.585 -0.8732  1.4175  0.5445
 1247SOL    HW2 5736   5.771   3.702   5.607 -0.3385 -0.4798  0.9458
 1248SOL     OW 5737   7.747   7.871   1.896  0.0117  0.5916  0.3583
 1248SOL    HW1 5738   7.777   7.913   1.977  0.0623  0.9352  0.1635
 1248SOL    HW2 5739   7.765   7.935   1.827 -0.0626  0.3160  0.0773
 1249SOL     OW 5740   3.665   8.825   3.377  0.3101  0.4179  0.2303
 1249SOL    HW1 5741   3.691   8.917   3.384 -0.1629  0.4124  3.1816
 1249SOL    HW2 5742   3.570   8.827   3.375  0.3045 -0.0193 -0.4257
 1250SOL     OW 5743   3.447   3.123   0.765  0.4337  0.7356  0.6689
 1250SOL    HW1 5744   3.353   3.129   0.779  0.2042  0.0842 -0.4476
 1250SOL    HW2 5745   3.479   3.073   0.841 -0.8470 -3.2896 -1.1511
 1251SOL     OW 5746   2.246   5.627   1.442 -0.0426  0.0403 -0.3480
 1251SOL    HW1 5747   2.168   5.652   1.490 -0.6818  0.7301 -1.6822
 1251SOL    HW2 5748   2.313   5.614   1.509 -0.8144  1.2564  0.6951
 1252SOL     OW 5749   0.476   6.473   4.436 -0.1248 -0.1194 -0.1775
 1252SOL    HW1 5750   0.540   6.412   4.474 -1.2139 -1.6614 -0.7588
 1252SOL    HW2 5751   0.529   6.530   4.380  0.9878 -0.1594  0.7748
 1253SOL     OW 5752   4.061   0.913   2.372 -0.4312 -0.1762 -0.0019
 1253SOL    HW1 5753   4.050   1.007   2.389  0.8407 -0.1462  0.8299
 1253SOL    HW2 5754   4.130   0.886   2.433  0.9283 -1.1258 -1.8624
 1254SOL     OW 5755   0.985   2.521   7.712  0.5552  0.0311 -0.0955
 1254SOL    HW1 5756   1.076   2.543   7.689 -0.0388  0.7295 -1.9709
 1254SOL    HW2 5757   0.992   2.473   7.794  2.5623  0.7350  0.1965
 1255SOL     OW 5758   7.051   3.970   7.374  0.3554  0.3308  0.0518
 1255SOL    HW1 5759   7.009   3.884   7.382 -0.3318  0.3733 -2.3530
 1255SOL    HW2 5760   6.990   4.031   7.416 -1.5535  0.2188 -2.3297
 1256SOL     OW 5761   7.532   5.676   1.213  0.5120 -0.3496  0.0471
 1256SOL    HW1 5762   7.515   5.693   1.121  0.7463 -1.0165 -0.1199
 1256SOL    HW2 5763   7.588   5.599   1.214  0.7367 -0.1871  0.7361
 1257SOL     OW 5764   0.182   2.242   1.338 -0.2410  0.1487 -0.1304
 1257SOL    HW1 5765   0.263   2.249   1.389  0.3324 -1.3701 -0.7969
 1257SOL    HW2 5766   0.123   2.191   1.394  0.0479 -0.6723 -0.5676
 1258SOL     OW 5767   3.985   1.064   6.699 -0.4235 -0.1530  0.6565
 1258SOL    HW1 5768   3.948   1.063   6.787  0.6196  0.6397  1.1291
 1258SOL    HW2 5769   3.924   1.013   6.646 -1.7445  0.4535  1.5609
 1259SOL     OW 5770   2.882   6.400   2.595 -0.1447 -0.0982  0.4533
 1259SOL    HW1 5771   2.843   6.373   2.678  0.3533 -1.2667  0.3184
 1259SOL    HW2 5772   2.807   6.425   2.541 -0.4594  0.9612  1.3247
 1260SOL     OW 5773   1.205   0.705   1.121  0.0676 -0.1275  0.6068
 1260SOL    HW1 5774   1.259   0.778   1.088  0.2795 -0.5145  0.0754
 1260SOL    HW2 5775   1.224   0.702   1.215  0.7328 -0.0582  0.4787
 1261SOL     OW 5776   4.158   1.320   5.429  0.1131 -0.2815 -0.1943
 1261SOL    HW1 5777   4.220   1.360   5.490  0.2490 -2.2342  1.0485
 1261SOL    HW2 5778   4.100   1.392   5.404  1.5939  1.1321  0.2480
 1262SOL     OW 5779   5.031   2.235   5.649  0.2336  0.1666  0.1446
 1262SOL    HW1 5780   5.113   2.228   5.699 -0.3439 -0.3499  1.0655
 1262SOL    HW2 5781   4.983   2.156   5.673 -0.7943  0.7649  0.0907
 1263SOL     OW 5782   5.597   2.730   0.964 -0.3215  0.4729 -0.0193
 1263SOL    HW1 5783   5.579   2.636   0.957 -0.4002  0.4991 -0.1674
 1263SOL    HW2 5784   5.542   2.759   1.037 -1.2991  0.6535 -0.7969
 1264SOL     OW 5785   0.520   4.749   1.324 -0.3701 -0.3982  0.3451
 1264SOL    HW1 5786   0.569   4.831   1.329 -1.3592  0.2887 -0.8924
 1264SOL    HW2 5787   0.440   4.770   1.277 -0.5585 -2.1160 -0.1935
 1265SOL     OW 5788   0.964   4.613   8.806  0.2468 -0.2726  0.1394
 1265SOL    HW1 5789   0.974   4.637   8.899 -1.4974  3.2891 -0.4358
 1265SOL    HW2 5790   0.870   4.596   8.796  0.6483 -2.2695 -0.7353
 1266SOL     OW 5791   8.004   0.500   4.165  0.1257 -0.1328 -0.5301
 1266SOL    HW1 5792   8.026   0.408   4.183  0.7000  0.0396 -0.3356
 1266SOL    HW2 5793   7.959   0.498   4.081 -0.7738 -0.7122 -0.0536
 1267SOL     OW 5794   2.378   7.828   4.747 -0.4517  0.2909 -0.1741
 1267SOL    HW1 5795   2.284   7.837   4.766 -0.4692  0.2236 -0.2254
 1267SOL    HW2 5796   2.386   7.847   4.654 -0.3106  0.9946 -0.0244
 1268SOL     OW 5797   7.022   5.586   7.475  0.3710  0.0434 -0.7170
 1268SOL    HW1 5798   7.029   5.678   7.451  2.2332  0.2876  0.5385
 1268SOL    HW2 5799   7.112   5.557   7.487 -0.2122 -1.6748 -0.0962
 1269SOL     OW 5800   0.029   0.046   6.131  0.2717  0.0547  0.0429
 1269SOL    HW1 5801   0.114   0.012   6.104  1.0671  0.3160  2.0603
 1269SOL    HW2 5802   0.010   0.002   6.213 -1.4821  0.1441 -0.2757
 1270SOL     OW 5803   6.797   8.696   3.147  0.2595  0.5208  0.3123
 1270SOL    HW1 5804   6.817   8.746   3.226  2.6905 -0.2858  0.3000
 1270SOL    HW2 5805   6.837   8.745   3.076 -0.5520  0.4290 -0.2273
 1271SOL     OW 5806   7.223   3.881   2.431 -0.1407 -0.6511 -0.9451
 1271SOL    HW1 5807   7.185   3.819   2.369  0.2172 -2.1143  0.2482
 1271SOL    HW2 5808   7.178   3.863   2.514 -0.1269  0.7899 -0.5912
 1272SOL     OW 5809   2.101   4.239   1.366 -0.4263  0.2321 -0.0755
 1272SOL    HW1 5810   2.170   4.254   1.301 -0.7089  0.6556 -0.2883
 1272SOL    HW2 5811   2.025   4.286   1.330 -0.4860  0.7711  0.7293
 1273SOL     OW 5812   3.676   8.389   1.653  0.1480  0.3396  0.4212
 1273SOL    HW1 5813   3.713   8.467   1.694  0.0720  0.9424 -0.6182
 1273SOL    HW2 5814   3.726   8.379   1.571 -0.8627  0.1852 -0.1893
 1274SOL     OW 5815   8.281   2.782   4.819 -0.2386  0.0334  0.5323
 1274SOL    HW1 5816   8.362   2.796   4.770 -0.0638  0.8713  1.0305
 1274SOL    HW2 5817   8.311   2.757   4.907 -0.5170  0.6211  0.7959
 1275SOL     OW 5818   1.505   6.601   6.561 -0.0605  0.0264  0.4970
 1275SOL    HW1 5819   1.426   6.646   6.590  0.4965  1.4692 -0.1368
 1275SOL    HW2 5820   1.480   6.558   6.479 -0.4999 -0.5542  0.9259
 1276SOL     OW 5821   8.629   5.515   8.877  0.2518 -0.0984  0.2991
 1276SOL    HW1 5822   8.539   5.488   8.861  0.0751  0.8786 -0.4473
 1276SOL    HW2 5823   8.631   5.538   8.970 -0.6840  1.3726 -0.0209
 1277SOL     OW 5824   2.926   2.556   8.223  0.2421  0.2146  0.4202
 1277SOL    HW1 5825   2.924   2.640   8.177  2.7823  0.0370 -0.1465
 1277SOL    HW2 5826   2.911   2.491   8.155 -0.3732  0.1227  0.6323
 1278SOL     OW 5827   1.027   6.479   7.869  0.1104  0.2841 -0.3542
 1278SOL    HW1 5828   0.962   6.528   7.819 -0.6097 -0.1130  0.1600
 1278SOL    HW2 5829   0.987   6.468   7.956  0.9565  0.2075  0.0323
 1279SOL     OW 5830   5.303   3.423   2.255 -0.3837 -0.4025  0.0724
 1279SOL    HW1 5831   5.229   3.418   2.196 -1.5324  0.3477  1.3926
 1279SOL    HW2 5832   5.356   3.496   2.222 -2.0833  1.3713  1.0844
 1280SOL     OW 5833   1.379   4.283   1.607 -0.2976  0.3770 -0.0196
 1280SOL    HW1 5834   1.319   4.209   1.607 -0.3104  0.3543 -1.7345
 1280SOL    HW2 5835   1.424   4.277   1.692 -1.7646 -0.3492  0.7503
 1281SOL     OW 5836   7.280   4.968   0.917 -0.4711 -0.7066 -0.1871
 1281SOL    HW1 5837   7.368   4.961   0.955  0.0354  1.1075 -0.9407
 1281SOL    HW2 5838   7.221   4.953   0.991  0.4528 -1.6310  0.3913
 1282SOL     OW 5839   4.956   6.307   2.394  0.0129 -0.1136  0.7747
 1282SOL    HW1 5840   4.960   6.273   2.304 -0.2628  1.0061  0.3202
 1282SOL    HW2 5841   4.874   6.272   2.429  0.8104 -1.7208  1.0954
 1283SOL     OW 5842   8.843   2.754   1.634 -0.0541 -0.0279  0.4484
 1283SOL    HW1 5843   8.871   2.709   1.554  0.3417  1.7728 -0.4739
 1283SOL    HW2 5844   8.751   2.728   1.644 -0.3314  0.2546 -1.0257
 1284SOL     OW 5845   3.285   0.592   2.092  0.3595 -0.0331 -0.1664
 1284SOL    HW1 5846   3.214   0.533   2.065 -0.0939 -0.5886  2.0961
 1284SOL    HW2 5847   3.260   0.622   2.179  2.2741  0.8257  0.1320
 1285SOL     OW 5848   0.041   4.187   3.771  0.4607  0.0043 -0.5640
 1285SOL    HW1 5849   0.084   4.106   3.801  1.3921  0.7043  0.0525
 1285SOL    HW2 5850   0.030   4.174   3.676  0.6545 -0.8195 -0.4852
 1286SOL     OW 5851   2.398   0.322   3.015 -0.5495 -0.4484 -0.6052
 1286SOL    HW1 5852   2.303   0.318   3.027 -0.3827 -0.8515  0.7823
 1286SOL    HW2 5853   2.413   0.282   2.930 -1.8283  1.9789 -2.0649
 1287SOL     OW 5854   2.772   2.039   3.986  0.0625 -0.1154 -0.1650
 1287SOL    HW1 5855   2.823   1.958   3.991  0.3128  0.0359 -0.2188
 1287SOL    HW2 5856   2.754   2.050   3.893 -0.7800 -0.6012 -0.0628
 1288SOL     OW 5857   1.411   4.714   4.493  0.1902  0.4575  0.3271
 1288SOL    HW1 5858   1.390   4.713   4.587 -0.2301  0.0662  0.2339
 1288SOL    HW2 5859   1.496   4.670   4.487  0.0578  0.1775  0.4885
 1289SOL     OW 5860   2.697   8.816   0.293 -0.4186  0.3028  0.1356
 1289SOL    HW1 5861   2.694   8.751   0.223 -2.2048  0.5906 -0.1221
 1289SOL    HW2 5862   2.760   8.781   0.356 -1.4483 -1.8020  0.0998
 1290SOL     OW 5863   6.477   7.790   5.193 -1.1496  0.1950 -0.2216
 1290SOL    HW1 5864   6.429   7.770   5.113 -0.5064  0.4474 -0.6800
 1290SOL    HW2 5865   6.557   7.833   5.163 -0.6831 -0.1284  0.5313
 1291SOL     OW 5866   2.425   7.400   5.398 -0.4166 -0.4019  0.1365
 1291SOL    HW1 5867   2.512   7.439   5.405 -0.2786 -0.5463 -0.6303
 1291SOL    HW2 5868   2.441   7.312   5.361 -0.8764 -0.4579  0.0655
 1292SOL     OW 5869   7.135   4.444   0.301 -0.0144 -0.2712  0.4577
 1292SOL    HW1 5870   7.160   4.354   0.283  0.8738  0.1684 -0.6199
 1292SOL    HW2 5871   7.046   4.451   0.267  0.2551 -0.5053 -0.3346
 1293SOL     OW 5872   6.760   1.191   7.432  0.4813  0.5218  0.9132
 1293SOL    HW1 5873   6.777   1.202   7.339  0.5270  1.8325  1.0541
 1293SOL    HW2 5874   6.740   1.279   7.463 -2.4803 -0.2926  1.5977
 1294SOL     OW 5875   3.823   4.971   7.719  0.3723 -0.3670 -0.1366
 1294SOL    HW1 5876   3.896   5.017   7.679  0.4698 -1.3749 -1.1751
 1294SOL    HW2 5877   3.751   5.033   7.718  0.8119  0.1426 -0.4378
 1295SOL     OW 5878   4.828   7.126   1.373  0.0530 -0.4233  0.5768
 1295SOL    HW1 5879   4.923   7.120   1.361  0.0619 -0.7745  0.8138
 1295SOL    HW2 5880   4.817   7.131   1.468 -0.2053 -1.1185  0.5864
 1296SOL     OW 5881   3.083   3.617   5.528 -0.1509  0.0116 -0.3347
 1296SOL    HW1 5882   3.083   3.541   5.586  0.0530 -0.0209 -0.3766
 1296SOL    HW2 5883   3.135   3.589   5.453  1.1736  0.6982  0.3074
 1297SOL     OW 5884   7.993   1.961   2.623 -0.2383 -0.2787  0.3635
 1297SOL    HW1 5885   8.027   1.941   2.535  1.1711 -0.8441  1.0134
 1297SOL    HW2 5886   7.898   1.946   2.615 -0.3086  0.7606 -1.3356
 1298SOL     OW 5887   0.773   0.277   7.225 -0.2152  0.3474 -0.0207
 1298SOL    HW1 5888   0.691   0.274   7.175 -0.7697 -0.7474  0.9221
 1298SOL    HW2 5889   0.830   0.215   7.181 -0.8554 -0.9476  0.9270
 1299SOL     OW 5890   3.144   8.743   7.754 -0.1875 -0.1043 -0.2820
 1299SOL    HW1 5891   3.054   8.770   7.737  0.0708  1.9571  1.3573
 1299SOL    HW2 5892   3.169   8.695   7.675 -1.1070  3.4512 -2.9641
 1300SOL     OW 5893   7.313   2.574   6.956 -0.0435  0.1429  0.3477
 1300SOL    HW1 5894   7.366   2.543   6.883 -1.1852 -0.2068 -0.3597
 1300SOL    HW2 5895   7.352   2.532   7.033  0.4595 -0.4106 -0.1976
 1301SOL     OW 5896   0.831   4.664   5.326  0.7150 -0.6601  0.5250
 1301SOL    HW1 5897   0.815   4.585   5.275  1.8339 -0.5145 -0.0946
 1301SOL    HW2 5898   0.910   4.644   5.377  0.1156 -0.4878  1.5428
 1302SOL     OW 5899   4.112   1.149   5.728 -0.0029 -0.0551 -0.5101
 1302SOL    HW1 5900   4.031   1.194   5.705 -0.8074 -1.3566 -0.3384
 1302SOL    HW2 5901   4.162   1.147   5.647 -0.2851  0.4569 -0.7042
 1303SOL     OW 5902   8.185   4.228   5.184  0.3417 -0.5027  0.2453
 1303SOL    HW1 5903   8.150   4.233   5.273  1.5064  0.4028  0.6826
 1303SOL    HW2 5904   8.277   4.253   5.193  0.3266  0.2389 -1.3023
 1304SOL     OW 5905   8.476   2.937   5.072 -0.5635  0.1995  1.0851
 1304SOL    HW1 5906   8.492   2.985   4.990  2.5593  0.1628  1.5824
 1304SOL    HW2 5907   8.475   3.005   5.139 -2.9644  0.2092  1.1461
 1305SOL     OW 5908   7.109   6.371   7.668  0.2505 -0.5615  0.5017
 1305SOL    HW1 5909   7.185   6.379   7.610 -0.0602  0.7519  0.2321
 1305SOL    HW2 5910   7.127   6.434   7.738  1.2027 -2.9604  2.5790
 1306SOL     OW 5911   5.719   4.091   4.570  0.3402  0.3040 -0.1859
 1306SOL    HW1 5912   5.776   4.047   4.506 -0.1678  0.2786 -0.6253
 1306SOL    HW2 5913   5.702   4.024   4.636  0.7315  0.2768 -0.1115
 1307SOL     OW 5914   7.505   2.632   3.968  0.0749 -0.1491 -0.4353
 1307SOL    HW1 5915   7.460   2.564   3.918 -0.1255 -0.8943  0.7330
 1307SOL    HW2 5916   7.490   2.712   3.917 -1.1038 -0.6833 -0.9678
 1308SOL     OW 5917   7.476   3.526   0.102  0.0139 -0.0103  0.8502
 1308SOL    HW1 5918   7.420   3.535   0.179  0.4960 -2.0677  1.5351
 1308SOL    HW2 5919   7.475   3.432   0.083  2.2981  0.0258  0.2067
 1309SOL     OW 5920   7.784   0.202   5.559 -0.6385  0.0454  0.2924
 1309SOL    HW1 5921   7.802   0.246   5.475 -1.5022 -1.2916 -0.6346
 1309SOL    HW2 5922   7.690   0.211   5.571 -0.4469  0.7149  1.4405
 1310SOL     OW 5923   7.324   2.548   1.251 -0.6080  0.3374 -0.3834
 1310SOL    HW1 5924   7.288   2.556   1.163  0.2140  2.9668 -0.5623
 1310SOL    HW2 5925   7.298   2.629   1.295  1.0806  0.2083  0.9775
 1311SOL     OW 5926   2.520   3.158   6.144 -0.0229 -0.4607 -0.3562
 1311SOL    HW1 5927   2.464   3.087   6.113  0.9707 -1.2823 -0.3058
 1311SOL    HW2 5928   2.531   3.141   6.237  1.3640 -1.0596 -0.6129
 1312SOL     OW 5929   1.762   6.157   4.011  0.0393 -0.0308  0.2487
 1312SOL    HW1 5930   1.710   6.077   3.999  0.2313 -0.2269  0.7291
 1312SOL    HW2 5931   1.699   6.223   4.040 -0.1477  0.0417 -0.2908
 1313SOL     OW 5932   7.503   6.282   0.546  0.4267 -0.0550 -0.3416
 1313SOL    HW1 5933   7.458   6.302   0.628 -1.3667 -1.2717 -0.9794
 1313SOL    HW2 5934   7.532   6.191   0.556 -2.7804 -1.4542 -2.2121
 1314SOL     OW 5935   4.246   1.013   4.225  0.1881 -0.4560  0.2088
 1314SOL    HW1 5936   4.277   1.103   4.218  0.0962 -0.3800  0.6984
 1314SOL    HW2 5937   4.202   1.010   4.310 -1.2741 -0.5277 -0.5301
 1315SOL     OW 5938   2.687   4.492   2.036  0.0121  0.5396  0.0447
 1315SOL    HW1 5939   2.683   4.416   1.979  1.1029  0.7874 -0.3856
 1315SOL    HW2 5940   2.612   4.483   2.094  0.3297 -1.0411  0.2329
 1316SOL     OW 5941   6.009   3.192   7.646  0.4000  0.0897  0.1315
 1316SOL    HW1 5942   5.919   3.168   7.624  0.6200 -0.0293 -0.6749
 1316SOL    HW2 5943   6.005   3.218   7.738 -0.3787 -0.3119  0.2217
 1317SOL     OW 5944   1.109   7.714   7.730 -0.0746  0.0459 -0.4783
 1317SOL    HW1 5945   1.052   7.782   7.763 -1.3650 -0.7016 -1.0755
 1317SOL    HW2 5946   1.090   7.710   7.636  0.0874 -1.0030 -0.4869
 1318SOL     OW 5947   4.883   5.891   1.095 -1.1217 -0.1932 -0.3148
 1318SOL    HW1 5948   4.949   5.898   1.026 -0.7122 -0.8667 -0.0023
 1318SOL    HW2 5949   4.807   5.938   1.061 -1.0349 -0.7750 -1.3518
 1319SOL     OW 5950   4.003   6.451   2.135 -0.2012 -0.5554  0.4652
 1319SOL    HW1 5951   4.018   6.545   2.142  0.9912 -0.7449  0.7415
 1319SOL    HW2 5952   3.954   6.440   2.054  0.2195  0.2491  0.0949
 1320SOL     OW 5953   1.950   1.605   8.503  0.7331  0.1673  0.1690
 1320SOL    HW1 5954   1.937   1.630   8.594  3.3772  2.0965  0.1458
 1320SOL    HW2 5955   1.922   1.681   8.453  3.1080  0.8439 -0.2907
 1321SOL     OW 5956   8.794   7.558   5.892 -0.3913  0.1838 -0.1569
 1321SOL    HW1 5957   8.859   7.617   5.854 -0.8173  1.0108  0.3637
 1321SOL    HW2 5958   8.827   7.470   5.872  0.1695  0.5842 -1.0990
 1322SOL     OW 5959   7.231   0.507   5.262 -0.0742 -0.7741 -0.4603
 1322SOL    HW1 5960   7.275   0.546   5.338  1.2930 -0.3741 -1.4088
 1322SOL    HW2 5961   7.138   0.516   5.281  0.2085 -1.6048  1.6144
 1323SOL     OW 5962   2.166   8.104   7.480  0.0526 -0.1118  0.1398
 1323SOL    HW1 5963   2.207   8.126   7.564 -0.9317 -2.4378  1.3360
 1323SOL    HW2 5964   2.125   8.185   7.451 -0.8626  0.4608  2.7113
 1324SOL     OW 5965   1.526   3.263   0.477 -0.3200 -0.5081  0.6765
 1324SOL    HW1 5966   1.521   3.208   0.555 -2.8574 -0.1186  0.8707
 1324SOL    HW2 5967   1.509   3.352   0.510  0.5972 -0.0299 -0.0726
 1325SOL     OW 5968   5.451   5.458   8.070 -0.0537  0.2487 -0.0710
 1325SOL    HW1 5969   5.515   5.454   8.140  0.0362  0.5489 -0.1346
 1325SOL    HW2 5970   5.452   5.549   8.041 -1.2874  0.5162  0.6595
 1326SOL     OW 5971   0.341   5.313   7.279 -0.1152  0.2121  0.6033
 1326SOL    HW1 5972   0.358   5.269   7.363 -0.6286  0.8799  1.0659
 1326SOL    HW2 5973   0.379   5.254   7.213  2.2896  0.7056  1.4340
 1327SOL     OW 5974   2.256   3.986   3.645 -0.3964  0.4556 -0.3005
 1327SOL    HW1 5975   2.180   3.928   3.639 -1.7539  1.6323  2.9858
 1327SOL    HW2 5976   2.330   3.933   3.616 -1.8293 -2.3335  0.8229
 1328SOL     OW 5977   4.036   1.196   7.825 -0.8853 -0.1046  0.3965
 1328SOL    HW1 5978   4.017   1.236   7.740 -0.3098 -1.3366 -0.3506
 1328SOL    HW2 5979   4.070   1.267   7.879 -2.9379  1.0998  0.2159
 1329SOL     OW 5980   7.626   3.226   2.406  0.1082  0.2993  0.0806
 1329SOL    HW1 5981   7.546   3.186   2.373 -0.7474  2.0737 -0.1243
 1329SOL    HW2 5982   7.639   3.304   2.351  0.5485  1.4366  1.7055
 1330SOL     OW 5983   5.282   8.337   1.105  0.4777 -0.1098  0.1351
 1330SOL    HW1 5984   5.288   8.345   1.009  0.6934  2.2800  0.2899
 1330SOL    HW2 5985   5.188   8.321   1.121  0.6888 -2.4364 -0.4988
 1331SOL     OW 5986   4.750   3.689   8.344  0.2176 -0.1266 -0.6250
 1331SOL    HW1 5987   4.755   3.771   8.296  0.5505  0.3202  0.1566
 1331SOL    HW2 5988   4.840   3.673   8.374 -0.3340  0.7219  1.6670
 1332SOL     OW 5989   4.974   6.539   2.741 -0.3301  0.2144 -0.5652
 1332SOL    HW1 5990   5.052   6.553   2.794 -0.4785 -0.2655 -0.2167
 1332SOL    HW2 5991   4.904   6.584   2.788 -0.0025  1.9138 -1.6269
 1333SOL     OW 5992   8.626   1.360   8.637  1.1969  0.8865 -0.0421
 1333SOL    HW1 5993   8.666   1.399   8.559  1.1334 -1.1225 -1.1178
 1333SOL    HW2 5994   8.660   1.271   8.640 -0.1696  0.3708  1.2564
 1334SOL     OW 5995   7.968   7.755   3.965 -0.5180 -0.4794  0.4316
 1334SOL    HW1 5996   7.986   7.805   3.885  3.3011  0.9969  1.9834
 1334SOL    HW2 5997   7.882   7.787   3.994 -0.7990  0.8822 -1.6805
 1335SOL     OW 5998   8.303   2.915   7.205 -0.3447 -0.1767 -0.3450
 1335SOL    HW1 5999   8.360   2.986   7.177 -0.1478 -0.7426 -1.4347
 1335SOL    HW2 6000   8.357   2.864   7.266 -1.5108  2.3257  3.0493
 1336SOL     OW 6001   1.849   2.702   5.212  0.7470  0.8358 -0.1182
 1336SOL    HW1 6002   1.793   2.675   5.139  0.7473 -0.2614  0.2584
 1336SOL    HW2 6003   1.799   2.769   5.257 -0.0178  0.2884 -0.1293
 1337SOL     OW 6004   7.321   0.192   2.035 -0.1974 -0.7591 -0.2089
 1337SOL    HW1 6005   7.361   0.206   1.949 -0.7552  0.6523 -0.2704
 1337SOL    HW2 6006   7.380   0.237   2.096 -1.5439  1.2309 -0.2832
 1338SOL     OW 6007   8.178   5.751   6.731  0.3439  0.1882 -0.7542
 1338SOL    HW1 6008   8.130   5.742   6.813  2.7543  1.1765  0.8794
 1338SOL    HW2 6009   8.127   5.815   6.681  0.0219  1.3526  0.9705
 1339SOL     OW 6010   6.245   4.274   5.637 -0.3132  0.4640 -0.6344
 1339SOL    HW1 6011   6.243   4.315   5.723  1.9991 -2.9712  1.2456
 1339SOL    HW2 6012   6.174   4.210   5.639 -0.0704  0.1689 -1.1681
 1340SOL     OW 6013   4.144   5.761   3.705 -0.1183  0.4248 -0.4237
 1340SOL    HW1 6014   4.157   5.774   3.799  1.8620  0.2774 -0.6374
 1340SOL    HW2 6015   4.095   5.679   3.698  1.2266 -0.4880  0.4591
 1341SOL     OW 6016   7.397   6.919   1.181 -0.3479 -0.0684 -0.2799
 1341SOL    HW1 6017   7.318   6.972   1.190 -0.7222 -0.5944 -0.4670
 1341SOL    HW2 6018   7.369   6.830   1.201  0.6624  0.0449  1.8777
 1342SOL     OW 6019   8.677   8.479   4.271  0.5052 -0.3274 -0.5745
 1342SOL    HW1 6020   8.623   8.446   4.199 -0.9145 -0.4049  0.4968
 1342SOL    HW2 6021   8.615   8.519   4.332  1.8010  0.7967  0.0543
 1343SOL     OW 6022   8.007   2.233   1.609  0.3677 -0.0562  0.1247
 1343SOL    HW1 6023   8.022   2.309   1.553 -0.6738  0.4144  0.4584
 1343SOL    HW2 6024   7.913   2.218   1.604  0.3508 -0.4047  1.2217
 1344SOL     OW 6025   7.416   5.596   5.455 -0.1843  0.5343 -0.4471
 1344SOL    HW1 6026   7.485   5.634   5.401  0.7645  0.8149  0.9191
 1344SOL    HW2 6027   7.375   5.670   5.499 -1.9319  0.4575 -1.8401
 1345SOL     OW 6028   6.458   6.721   8.839 -0.0098  0.3948  0.1164
 1345SOL    HW1 6029   6.514   6.654   8.877 -0.7148 -0.0363  0.4292
 1345SOL    HW2 6030   6.517   6.793   8.817  0.5051  0.3998  1.4425
 1346SOL     OW 6031   1.128   4.938   5.704  0.7033 -0.5046 -0.1378
 1346SOL    HW1 6032   1.176   4.935   5.621  1.4258 -0.1436  0.2567
 1346SOL    HW2 6033   1.037   4.954   5.678  1.0720  0.6539 -0.8288
 1347SOL     OW 6034   0.885   1.328   2.957 -0.4211 -0.0572 -0.1397
 1347SOL    HW1 6035   0.946   1.320   3.030 -0.3906  0.1570 -0.1410
 1347SOL    HW2 6036   0.935   1.299   2.881 -0.5800 -0.6759 -0.0165
 1348SOL     OW 6037   5.641   1.753   7.199 -0.6551 -0.9207 -0.8327
 1348SOL    HW1 6038   5.587   1.689   7.246 -0.7782  0.5631  1.1796
 1348SOL    HW2 6039   5.588   1.833   7.199  0.2320 -0.3144 -1.6938
 1349SOL     OW 6040   2.073   1.878   5.812 -0.2311  0.2297 -0.3230
 1349SOL    HW1 6041   2.000   1.826   5.780 -0.2043 -0.0707  0.0932
 1349SOL    HW2 6042   2.037   1.928   5.886  0.2147 -0.6628  0.5215
 1350SOL     OW 6043   3.308   8.048   2.276 -0.4939 -0.2176  0.0809
 1350SOL    HW1 6044   3.309   8.031   2.370  1.7036  0.5533  0.2462
 1350SOL    HW2 6045   3.345   7.969   2.236 -0.6834 -0.2306 -0.0723
 1351SOL     OW 6046   2.965   3.334   1.821  0.4526 -0.3044 -0.1211
 1351SOL    HW1 6047   3.057   3.318   1.799  0.2181  1.2554 -2.6471
 1351SOL    HW2 6048   2.916   3.268   1.771  0.1356 -0.9004  0.9352
 1352SOL     OW 6049   3.892   3.348   1.182 -0.1837 -0.4401  0.4785
 1352SOL    HW1 6050   3.907   3.263   1.224 -0.1194  0.1888  1.7599
 1352SOL    HW2 6051   3.798   3.361   1.187 -0.1832 -0.3829  0.3570
 1353SOL     OW 6052   8.711   5.132   6.566 -0.0553 -0.2694  0.2784
 1353SOL    HW1 6053   8.737   5.209   6.516 -2.2499  0.6618  0.4467
 1353SOL    HW2 6054   8.692   5.166   6.653 -1.6728 -0.8596  0.1830
 1354SOL     OW 6055   4.115   6.178   0.648  0.1460  0.7324  0.1558
 1354SOL    HW1 6056   4.079   6.226   0.574  0.0714 -0.7967 -0.8445
 1354SOL    HW2 6057   4.044   6.121   0.677  1.2845 -1.4547 -1.0940
 1355SOL     OW 6058   2.962   2.453   2.121 -0.5586  0.2341 -0.3129
 1355SOL    HW1 6059   3.019   2.377   2.113  2.5550  1.8142  3.4678
 1355SOL    HW2 6060   2.914   2.438   2.203 -0.3797  1.9626  0.1501
 1356SOL     OW 6061   6.777   1.566   8.508  0.0283  0.1993  0.9723
 1356SOL    HW1 6062   6.867   1.594   8.521 -0.2627  1.5412  0.2392
 1356SOL    HW2 6063   6.782   1.470   8.501  1.2633  0.1838  1.8534
 1357SOL     OW 6064   4.757   4.714   4.268  0.4558  0.5313 -0.5060
 1357SOL    HW1 6065   4.829   4.669   4.312 -0.3607 -1.7246 -1.3490
 1357SOL    HW2 6066   4.726   4.779   4.331  1.4378 -0.3561  0.9330
 1358SOL     OW 6067   2.152   7.476   5.975 -0.4390  0.1237 -0.2499
 1358SOL    HW1 6068   2.228   7.423   5.951 -0.9301 -0.4534 -0.5414
 1358SOL    HW2 6069   2.185   7.535   6.043 -0.1513 -1.3310  0.9213
 1359SOL     OW 6070   7.125   3.393   7.727  1.0672  0.0983 -0.3009
 1359SOL    HW1 6071   7.123   3.486   7.750 -0.6196  0.1412 -0.4709
 1359SOL    HW2 6072   7.197   3.385   7.665  1.5117  1.2124  0.0528
 1360SOL     OW 6073   2.867   7.382   1.644  0.1198 -0.0973  0.5353
 1360SOL    HW1 6074   2.793   7.381   1.705  0.1684 -0.7001  0.5940
 1360SOL    HW2 6075   2.919   7.458   1.670 -0.5292  0.3946  0.4289
 1361SOL     OW 6076   1.137   6.134   6.612 -0.3957 -0.2009 -0.0500
 1361SOL    HW1 6077   1.053   6.137   6.567 -0.3290  0.6544 -0.1292
 1361SOL    HW2 6078   1.125   6.190   6.689 -0.0074 -0.3588  0.1268
 1362SOL     OW 6079   1.073   1.694   1.771 -0.3126 -0.0321 -0.0719
 1362SOL    HW1 6080   1.093   1.748   1.847  1.3608 -2.0939  1.0700
 1362SOL    HW2 6081   1.158   1.669   1.736 -1.0454 -0.7867 -1.3983
 1363SOL     OW 6082   1.705   4.825   7.427 -0.5633  0.1655  0.3303
 1363SOL    HW1 6083   1.746   4.909   7.447 -0.0478 -0.1466  0.6130
 1363SOL    HW2 6084   1.612   4.845   7.416 -0.4043  0.8086  0.1592
 1364SOL     OW 6085   3.565   0.615   4.482  0.3416  0.4861 -0.1394
 1364SOL    HW1 6086   3.590   0.705   4.503  0.8050  0.4116 -0.3671
 1364SOL    HW2 6087   3.638   0.581   4.429  0.3582 -0.1483  0.2764
 1365SOL     OW 6088   2.049   0.330   0.131 -0.4012 -0.6443  0.0858
 1365SOL    HW1 6089   1.998   0.408   0.152 -2.6050 -2.1862  0.8030
 1365SOL    HW2 6090   2.065   0.288   0.215  1.0149 -0.8440 -0.2576
 1366SOL     OW 6091   6.971   1.240   1.767  0.6757 -0.3417  0.2680
 1366SOL    HW1 6092   6.906   1.273   1.829 -0.2345  0.6712 -1.1577
 1366SOL    HW2 6093   6.935   1.156   1.737  0.6890 -0.4121  0.4450
 1367SOL     OW 6094   3.214   6.089   6.348  0.3416 -0.0499  0.4767
 1367SOL    HW1 6095   3.208   6.178   6.313  1.3672 -0.3845 -0.6234
 1367SOL    HW2 6096   3.160   6.091   6.427 -0.5082  1.2564 -0.0959
 1368SOL     OW 6097   1.373   3.186   3.047  0.4342  0.0365 -0.1421
 1368SOL    HW1 6098   1.349   3.099   3.079  0.1286  0.2070  0.0994
 1368SOL    HW2 6099   1.463   3.199   3.077  0.6653 -0.4161 -0.6450
 1369SOL     OW 6100   7.292   2.560   3.724 -0.0275 -0.2606 -0.1293
 1369SOL    HW1 6101   7.258   2.628   3.666 -1.1909 -2.0892 -1.6997
 1369SOL    HW2 6102   7.216   2.506   3.746  0.7104 -0.6132  1.7560
 1370SOL     OW 6103   7.800   1.840   5.628 -0.7282  0.2323 -0.0955
 1370SOL    HW1 6104   7.751   1.830   5.710  0.4208 -0.8100  0.5034
 1370SOL    HW2 6105   7.859   1.913   5.644 -0.0893 -0.3423  0.2511
 1371SOL     OW 6106   4.308   1.990   8.829  0.0585  0.1137  1.0434
 1371SOL    HW1 6107   4.329   1.964   8.739 -0.7279  2.5733  0.0485
 1371SOL    HW2 6108   4.223   1.949   8.846 -0.5043  0.8084  0.0515
 1372SOL     OW 6109   2.453   7.708   7.683  0.3755 -0.6530  0.7407
 1372SOL    HW1 6110   2.491   7.790   7.716 -0.0272 -0.3559  0.4767
 1372SOL    HW2 6111   2.420   7.731   7.596 -2.3858 -0.2945  1.7766
 1373SOL     OW 6112   0.746   3.612   6.658 -0.0850  0.2168 -0.5841
 1373SOL    HW1 6113   0.662   3.586   6.696  0.7805 -0.0028  1.3100
 1373SOL    HW2 6114   0.772   3.539   6.602 -2.2145  1.2735 -3.1395
 1374SOL     OW 6115   1.251   5.666   2.893 -0.5440 -0.3815  0.5985
 1374SOL    HW1 6116   1.335   5.643   2.933 -0.8078 -0.8770  0.8714
 1374SOL    HW2 6117   1.187   5.653   2.963 -1.2050 -2.5989 -0.3415
 1375SOL     OW 6118   6.525   1.813   0.481  0.6031 -0.1312 -0.4245
 1375SOL    HW1 6119   6.510   1.722   0.457 -2.0249 -0.3221  1.5139
 1375SOL    HW2 6120   6.527   1.812   0.577 -2.4382  2.1457 -0.2116
 1376SOL     OW 6121   5.650   1.423   3.231  0.1184  0.1322  0.2026
 1376SOL    HW1 6122   5.567   1.378   3.245 -0.5886  2.0175  2.9006
 1376SOL    HW2 6123   5.717   1.356   3.248 -0.8517 -0.7684  0.5815
 1377SOL     OW 6124   5.978   5.360   8.648 -0.2368  0.3244 -0.6284
 1377SOL    HW1 6125   5.996   5.293   8.583 -0.2177  0.7304 -1.0439
 1377SOL    HW2 6126   5.884   5.377   8.640  0.2482  2.5526 -2.6979
 1378SOL     OW 6127   0.897   2.958   6.583 -0.9084 -0.4082  0.3838
 1378SOL    HW1 6128   0.851   3.028   6.536 -0.0104 -1.3280 -1.9621
 1378SOL    HW2 6129   0.972   2.937   6.529  0.9649 -0.6800  2.8994
 1379SOL     OW 6130   1.849   3.673   8.470  0.1217  0.0312  0.2365
 1379SOL    HW1 6131   1.879   3.720   8.392 -3.5438  1.4977 -0.4923
 1379SOL    HW2 6132   1.862   3.581   8.449  2.3890  0.4543 -0.5772
 1380SOL     OW 6133   7.522   5.869   2.485  0.3349 -0.0541  0.1663
 1380SOL    HW1 6134   7.509   5.784   2.525  1.9620 -0.0165  0.8490
 1380SOL    HW2 6135   7.450   5.878   2.423 -1.4326 -0.7497  1.9933
 1381SOL     OW 6136   6.096   5.051   3.286  0.3811  0.0378 -0.0848
 1381SOL    HW1 6137   6.168   5.107   3.258  0.1283  0.2063 -0.4130
 1381SOL    HW2 6138   6.037   5.110   3.334  0.6927 -0.1984  0.6064
 1382SOL     OW 6139   3.513   1.416   2.044  0.0349 -0.7672  0.2922
 1382SOL    HW1 6140   3.608   1.419   2.052  0.0798 -1.1363 -0.0998
 1382SOL    HW2 6141   3.481   1.450   2.128  0.5085 -0.4591  0.3552
 1383SOL     OW 6142   5.963   8.430   5.469  0.0586 -0.3467 -0.2920
 1383SOL    HW1 6143   6.005   8.479   5.398 -1.4249  0.1001 -0.8783
 1383SOL    HW2 6144   5.930   8.350   5.427  0.0470 -0.5566  0.1094
 1384SOL     OW 6145   5.598   5.253   3.558  0.0041  0.6972 -0.0492
 1384SOL    HW1 6146   5.627   5.186   3.497 -1.8661 -2.8284  2.5877
 1384SOL    HW2 6147   5.678   5.287   3.597  1.0113  0.2212 -1.6073
 1385SOL     OW 6148   8.009   2.250   0.431 -0.2657  0.1832 -0.1135
 1385SOL    HW1 6149   7.939   2.232   0.494 -0.8992  0.0317 -0.8453
 1385SOL    HW2 6150   8.065   2.314   0.475 -0.2953 -0.4419  0.8847
 1386SOL     OW 6151   8.279   7.921   6.440  0.3382 -0.6824  0.7744
 1386SOL    HW1 6152   8.312   7.985   6.503  0.4098  1.2519 -1.1138
 1386SOL    HW2 6153   8.222   7.972   6.382 -1.8707 -2.8959  0.8117
 1387SOL     OW 6154   6.218   1.436   6.368 -0.0989 -0.4513  0.3578
 1387SOL    HW1 6155   6.212   1.439   6.273 -0.6720 -1.4821  0.3568
 1387SOL    HW2 6156   6.155   1.369   6.395 -1.4436  1.2069  1.6104
 1388SOL     OW 6157   1.855   7.980   7.108  0.0804 -0.0688  0.0521
 1388SOL    HW1 6158   1.905   8.049   7.152 -2.0456  1.0776  0.7866
 1388SOL    HW2 6159   1.905   7.900   7.125  2.0381  1.1011  0.1061
 1389SOL     OW 6160   0.449   5.222   6.969  0.6717 -0.7207 -0.5089
 1389SOL    HW1 6161   0.543   5.205   6.975  0.7723 -0.1216 -0.3522
 1389SOL    HW2 6162   0.442   5.317   6.967  0.0527 -0.7593 -0.2635
 1390SOL     OW 6163   1.651   8.098   8.570  0.0564 -0.3071  0.1428
 1390SOL    HW1 6164   1.636   8.127   8.660  0.9571 -0.3278  0.3116
 1390SOL    HW2 6165   1.727   8.149   8.540  0.7595 -1.4187 -0.0435
 1391SOL     OW 6166   3.033   8.323   7.137  0.1706 -0.3525 -0.1035
 1391SOL    HW1 6167   3.110   8.269   7.155 -0.6645 -0.9854  1.8455
 1391SOL    HW2 6168   2.966   8.289   7.196 -1.3188  0.8208 -1.0574
 1392SOL     OW 6169   8.827   8.360   8.625  0.1311  0.1978 -0.0941
 1392SOL    HW1 6170   8.884   8.436   8.633 -1.0895  1.1255  0.1035
 1392SOL    HW2 6171   8.844   8.325   8.538  0.5521  0.8319 -0.2691
 1393SOL     OW 6172   3.830   8.183   1.979  0.2616  0.6368  0.4680
 1393SOL    HW1 6173   3.868   8.122   1.916 -0.5603  0.1919  0.3976
 1393SOL    HW2 6174   3.903   8.242   2.002  1.0563 -0.3437  0.5247
 1394SOL     OW 6175   8.397   6.014   1.660 -0.1822  0.2988 -0.0907
 1394SOL    HW1 6176   8.464   5.977   1.604  0.0220  1.5606 -0.7135
 1394SOL    HW2 6177   8.367   5.940   1.714  1.4173 -0.3653 -0.0670
 1395SOL     OW 6178   5.930   1.322   5.943  0.0822  0.5393  0.0776
 1395SOL    HW1 6179   5.933   1.388   6.013 -0.7904 -0.4789  1.1193
 1395SOL    HW2 6180   5.840   1.325   5.911  0.0304 -0.1384  0.1453
 1396SOL     OW 6181   2.636   1.474   8.445 -0.0396 -0.0763 -0.6660
 1396SOL    HW1 6182   2.626   1.518   8.360 -1.8181 -0.1855 -0.5436
 1396SOL    HW2 6183   2.649   1.382   8.423  0.6036  0.0525 -0.8418
 1397SOL     OW 6184   0.382   5.315   0.366 -0.2248 -0.2135 -0.0066
 1397SOL    HW1 6185   0.374   5.402   0.406  0.1877  0.2928 -0.9832
 1397SOL    HW2 6186   0.429   5.331   0.284  1.1429 -1.5760  0.4720
 1398SOL     OW 6187   1.521   6.768   7.967 -0.0813 -0.6803  0.2616
 1398SOL    HW1 6188   1.446   6.709   7.974 -0.1905 -0.6262 -0.4291
 1398SOL    HW2 6189   1.571   6.752   8.048  1.3327 -3.6849 -1.0287
 1399SOL     OW 6190   0.582   6.422   4.949  0.0426 -0.3645  0.2500
 1399SOL    HW1 6191   0.517   6.354   4.932  0.1183  0.2149 -2.9229
 1399SOL    HW2 6192   0.649   6.409   4.883  1.5839  1.0136  1.4407
 1400SOL     OW 6193   7.370   4.206   7.151  0.0235 -0.4422  0.2665
 1400SOL    HW1 6194   7.391   4.197   7.058  1.6094  1.7972  0.3306
 1400SOL    HW2 6195   7.317   4.129   7.171  0.4569 -1.4973 -2.2456
 1401SOL     OW 6196   5.932   8.045   6.001 -0.2191 -0.1997  0.1238
 1401SOL    HW1 6197   5.910   7.988   5.927  1.3384  2.0654 -2.2305
 1401SOL    HW2 6198   5.854   8.100   6.012 -0.8114 -1.1416  0.8599
 1402SOL     OW 6199   1.633   0.716   2.946  0.2598  0.6096  0.3510
 1402SOL    HW1 6200   1.628   0.738   3.039 -0.4091  1.8510  0.0417
 1402SOL    HW2 6201   1.707   0.768   2.913 -0.0323  0.8235  0.0245
 1403SOL     OW 6202   0.903   0.043   1.266 -0.1573 -0.3314  0.3191
 1403SOL    HW1 6203   0.820   0.064   1.309  1.4805 -0.3145  3.7586
 1403SOL    HW2 6204   0.895  -0.050   1.244 -0.9166 -0.4679  1.0935
 1404SOL     OW 6205   2.965   0.014   6.339  0.0960 -0.7304  0.0275
 1404SOL    HW1 6206   3.056   0.008   6.310  0.3477  0.9910  0.3692
 1404SOL    HW2 6207   2.924   0.074   6.277 -0.9605 -1.8378 -0.3995
 1405SOL     OW 6208   2.917   0.083   8.420  0.4712  0.7480  0.0111
 1405SOL    HW1 6209   2.924   0.052   8.330 -0.1349  2.1437 -0.5483
 1405SOL    HW2 6210   2.946   0.174   8.417  0.1381  0.9141  1.1626
 1406SOL     OW 6211   4.340   3.025   2.117 -0.2286  0.4959 -0.0820
 1406SOL    HW1 6212   4.314   2.947   2.167 -1.6465  1.2601  0.4332
 1406SOL    HW2 6213   4.385   3.080   2.182  0.1266  0.4265 -0.2679
 1407SOL     OW 6214   6.934   7.133   3.176 -0.1552  0.2309 -0.1928
 1407SOL    HW1 6215   7.011   7.190   3.166 -0.9399  1.1727 -1.1639
 1407SOL    HW2 6216   6.911   7.109   3.086 -1.2981  0.3898  0.0521
 1408SOL     OW 6217   7.764   4.341   4.478 -0.7488 -0.8065  0.8403
 1408SOL    HW1 6218   7.776   4.398   4.402  0.8697 -3.1863 -0.8638
 1408SOL    HW2 6219   7.781   4.397   4.554 -0.2218  1.1743 -0.6632
 1409SOL     OW 6220   1.902   3.779   1.653  0.5630  0.5267 -0.2441
 1409SOL    HW1 6221   1.961   3.708   1.630  1.2048  0.1720  2.1862
 1409SOL    HW2 6222   1.829   3.736   1.699 -0.3271  1.2071 -0.9699
 1410SOL     OW 6223   6.097   7.642   8.263  0.2420  0.6174  0.9714
 1410SOL    HW1 6224   6.176   7.590   8.248 -1.4976 -1.8180 -0.4690
 1410SOL    HW2 6225   6.044   7.588   8.321 -1.9352  0.3790 -1.1114
 1411SOL     OW 6226   7.429   2.712   5.436  0.2064 -0.1835 -0.6456
 1411SOL    HW1 6227   7.361   2.645   5.443  0.2299 -0.1549 -0.0943
 1411SOL    HW2 6228   7.412   2.755   5.352 -0.3356 -0.3087 -0.6034
 1412SOL     OW 6229   5.734   5.275   8.609 -0.0682 -0.4700  0.1244
 1412SOL    HW1 6230   5.712   5.270   8.516  1.4841  0.8640 -0.3625
 1412SOL    HW2 6231   5.656   5.241   8.654 -0.5985 -1.7864 -1.6548
 1413SOL     OW 6232   0.773   4.195   5.967  0.1808  0.0071  0.5373
 1413SOL    HW1 6233   0.718   4.156   5.899  2.5098 -2.6218  0.0051
 1413SOL    HW2 6234   0.787   4.124   6.030  3.0758  0.4640  0.5358
 1414SOL     OW 6235   7.525   0.586   2.852 -0.5301 -0.1410  0.2541
 1414SOL    HW1 6236   7.434   0.614   2.841 -0.5146  0.6259  1.8260
 1414SOL    HW2 6237   7.560   0.585   2.763 -2.0256 -0.3315 -0.3740
 1415SOL     OW 6238   7.777   0.309   6.212 -0.1056 -0.4565  0.6397
 1415SOL    HW1 6239   7.838   0.375   6.182 -1.2196 -0.2360 -1.2906
 1415SOL    HW2 6240   7.825   0.260   6.279  2.1420 -0.2632 -0.7390
 1416SOL     OW 6241   5.992   3.284   3.847  0.0744 -0.6071  0.4638
 1416SOL    HW1 6242   6.002   3.194   3.816 -0.2254 -1.2749  2.1939
 1416SOL    HW2 6243   6.080   3.308   3.877  0.1554 -0.2968  0.0007
 1417SOL     OW 6244   7.980   7.639   8.750  0.5248  0.0624 -0.4841
 1417SOL    HW1 6245   7.948   7.670   8.835  1.6787  2.5000 -0.8557
 1417SOL    HW2 6246   8.073   7.624   8.763  0.5976 -0.1069 -1.1737
 1418SOL     OW 6247   0.878   0.360   1.838 -0.5312 -0.4222 -0.0786
 1418SOL    HW1 6248   0.924   0.443   1.847  2.6863 -2.2516  2.3897
 1418SOL    HW2 6249   0.816   0.357   1.911  1.1646 -1.1222  1.4026
 1419SOL     OW 6250   7.534   1.021   7.082 -0.1125  0.3689  0.1131
 1419SOL    HW1 6251   7.523   1.057   6.994 -2.5378  0.9411  0.5740
 1419SOL    HW2 6252   7.530   1.097   7.140  0.8561 -0.0638  0.7813
 1420SOL     OW 6253   6.252   8.201   5.719 -0.3539  0.1465 -0.2443
 1420SOL    HW1 6254   6.247   8.244   5.804 -0.2805 -1.3728  0.5581
 1420SOL    HW2 6255   6.162   8.172   5.702 -0.2793  0.0364 -0.4534
 1421SOL     OW 6256   7.603   7.594   1.042 -0.3157 -0.1254 -0.0443
 1421SOL    HW1 6257   7.553   7.674   1.058 -0.1756 -0.4660  2.4694
 1421SOL    HW2 6258   7.550   7.524   1.079  0.3067 -0.9843 -0.7316
 1422SOL     OW 6259   0.790   7.462   5.133  0.3112 -0.8708 -0.0298
 1422SOL    HW1 6260   0.723   7.395   5.119 -0.2780 -0.9159  2.5267
 1422SOL    HW2 6261   0.749   7.543   5.103  0.9373 -1.5048 -2.9027
 1423SOL     OW 6262   2.198   5.847   7.668  0.0761  0.3033  0.0047
 1423SOL    HW1 6263   2.157   5.763   7.644 -2.4201  1.0556  1.3293
 1423SOL    HW2 6264   2.260   5.824   7.737 -1.1673 -0.3732  0.9272
 1424SOL     OW 6265   2.788   8.628   3.472 -0.2926 -0.3720  0.3153
 1424SOL    HW1 6266   2.708   8.672   3.442 -0.3496 -0.2390  0.6573
 1424SOL    HW2 6267   2.765   8.593   3.558  0.1445  0.0408  0.6101
 1425SOL     OW 6268   0.755   4.441   5.127 -0.6075  0.4663  0.1797
 1425SOL    HW1 6269   0.788   4.449   5.037  1.3243 -1.6722  0.6053
 1425SOL    HW2 6270   0.662   4.420   5.117 -0.7137  1.5053 -1.2614
 1426SOL     OW 6271   0.155   5.352   5.578  0.0046 -0.1807  0.2130
 1426SOL    HW1 6272   0.093   5.425   5.570  0.6327  0.3415  0.0648
 1426SOL    HW2 6273   0.104   5.275   5.552 -0.7771  0.1413  0.7247
 1427SOL     OW 6274   2.341   5.189   7.216  0.0457  0.4629  0.1006
 1427SOL    HW1 6275   2.294   5.108   7.236 -0.2090  0.6454  0.2604
 1427SOL    HW2 6276   2.392   5.207   7.295  0.4999  0.1862 -0.1292
 1428SOL     OW 6277   3.580   3.692   4.422 -1.1088 -0.1546 -0.5831
 1428SOL    HW1 6278   3.583   3.596   4.415 -1.3757 -0.1726 -0.4680
 1428SOL    HW2 6279   3.665   3.721   4.389 -1.0103 -0.4339 -0.5801
 1429SOL     OW 6280   8.774   1.226   3.900 -0.1816 -0.1389  0.5069
 1429SOL    HW1 6281   8.821   1.167   3.959 -0.8934  0.0509  1.2899
 1429SOL    HW2 6282   8.681   1.205   3.915 -0.4811  1.5107  1.1740
 1430SOL     OW 6283   8.550   1.055   5.092 -0.2801  0.2677 -0.0776
 1430SOL    HW1 6284   8.510   1.068   5.006 -1.0237  0.5145  0.3015
 1430SOL    HW2 6285   8.588   1.140   5.115  1.2169 -0.1686 -0.7960
 1431SOL     OW 6286   0.379   6.325   6.017 -0.5382 -0.3749 -0.1819
 1431SOL    HW1 6287   0.438   6.354   5.948 -0.0764 -1.2257 -0.1497
 1431SOL    HW2 6288   0.380   6.230   6.012 -0.9356 -0.4345  0.6374
 1432SOL     OW 6289   6.989   6.667   0.014 -0.1396  0.4344 -0.3842
 1432SOL    HW1 6290   7.053   6.713  -0.041 -0.5589  1.0605 -0.3580
 1432SOL    HW2 6291   6.962   6.732   0.079 -1.1203  0.3265 -0.6582
 1433SOL     OW 6292   5.181   4.477   4.074 -0.1701 -0.0652  0.3453
 1433SOL    HW1 6293   5.093   4.508   4.053 -0.0826 -0.0002  0.0598
 1433SOL    HW2 6294   5.233   4.557   4.083 -0.3395 -0.0658  1.4734
 1434SOL     OW 6295   3.965   8.633   1.645 -0.7280 -0.2944  0.4736
 1434SOL    HW1 6296   4.047   8.679   1.626 -1.1698  0.5586  0.5964
 1434SOL    HW2 6297   3.911   8.697   1.691 -1.9149 -0.4569 -0.6253
 1435SOL     OW 6298   7.283   3.532   6.025 -0.4729 -0.0479 -0.3479
 1435SOL    HW1 6299   7.279   3.617   5.982 -0.4330  0.1791  0.0910
 1435SOL    HW2 6300   7.198   3.493   6.009 -1.2291  0.9081  1.1263
 1436SOL     OW 6301   6.913   1.568   2.749  0.3442  0.6796 -0.5853
 1436SOL    HW1 6302   6.981   1.635   2.742  1.5078 -0.4170 -0.2695
 1436SOL    HW2 6303   6.879   1.558   2.660 -0.2265  2.0310 -0.5460
 1437SOL     OW 6304   7.369   5.040   1.993 -0.2494 -0.3547  0.0671
 1437SOL    HW1 6305   7.388   5.035   2.087 -0.5442  1.2547  0.2493
 1437SOL    HW2 6306   7.385   5.132   1.971 -2.1639 -0.2374 -1.0261
 1438SOL     OW 6307   5.813   6.499   2.892  0.2782  0.7831 -0.5356
 1438SOL    HW1 6308   5.808   6.404   2.886 -0.1980  0.7088  0.6689
 1438SOL    HW2 6309   5.726   6.526   2.922  0.7387  1.4890  0.2054
 1439SOL     OW 6310   5.606   8.527   8.058  0.2997  0.2493  0.0210
 1439SOL    HW1 6311   5.584   8.562   7.971  0.7017  0.0836 -0.1487
 1439SOL    HW2 6312   5.642   8.440   8.041  1.6791  0.7444  0.2293
 1440SOL     OW 6313   2.591   5.956   1.177  0.0357 -0.0601  0.2569
 1440SOL    HW1 6314   2.624   5.928   1.092  1.5170 -0.4031  0.9054
 1440SOL    HW2 6315   2.562   6.046   1.164  1.2093  0.2374 -0.3778
 1441SOL     OW 6316   7.309   0.950   6.677  0.0805 -0.5336  0.1483
 1441SOL    HW1 6317   7.282   0.911   6.594  1.4343 -2.4887  0.5759
 1441SOL    HW2 6318   7.389   0.999   6.656 -0.6655  0.6639 -0.0408
 1442SOL     OW 6319   2.478   7.143   1.455 -0.0723  0.2092  0.0478
 1442SOL    HW1 6320   2.498   7.236   1.461  0.6984  0.0770 -0.3159
 1442SOL    HW2 6321   2.405   7.130   1.515  0.7798  0.7779  1.2645
 1443SOL     OW 6322   0.622   5.634   2.891  0.7549  0.4952  0.3593
 1443SOL    HW1 6323   0.664   5.584   2.961  1.3005  0.3640 -0.0685
 1443SOL    HW2 6324   0.665   5.606   2.811  1.1458  1.7249  0.1240
 1444SOL     OW 6325   5.318   1.390   7.682 -0.2322  0.7347 -0.0752
 1444SOL    HW1 6326   5.253   1.461   7.678 -0.6657  0.3188 -0.6023
 1444SOL    HW2 6327   5.266   1.312   7.702  0.0811  0.3744 -0.6339
 1445SOL     OW 6328   7.188   8.799   2.161  0.1462 -0.5573 -0.2469
 1445SOL    HW1 6329   7.282   8.781   2.167  0.2935 -0.1171 -1.0689
 1445SOL    HW2 6330   7.171   8.863   2.231  0.4941 -0.4950 -0.2194
 1446SOL     OW 6331   0.688   3.148   4.507  0.5811 -0.0540 -0.1253
 1446SOL    HW1 6332   0.745   3.181   4.577 -0.0419 -0.8034  0.7454
 1446SOL    HW2 6333   0.687   3.053   4.519 -1.2506 -0.0176  0.1970
 1447SOL     OW 6334   8.545   0.693   1.591 -0.2114 -0.0324  0.7165
 1447SOL    HW1 6335   8.457   0.719   1.565 -0.3746  0.8560  2.0628
 1447SOL    HW2 6336   8.597   0.773   1.583  0.4458 -0.5166  0.0709
 1448SOL     OW 6337   6.565   7.066   1.419 -0.3457 -0.2284  0.2147
 1448SOL    HW1 6338   6.489   7.008   1.413 -0.0363 -0.5588 -0.5611
 1448SOL    HW2 6339   6.530   7.146   1.458 -2.4295  1.8330 -4.9221
 1449SOL     OW 6340   2.708   6.009   4.210 -0.4152 -1.0297  0.3355
 1449SOL    HW1 6341   2.780   6.035   4.267 -0.4107  0.4018 -0.2871
 1449SOL    HW2 6342   2.742   5.933   4.162  1.4228  0.6926 -1.2758
 1450SOL     OW 6343   0.029   3.999   6.413 -0.3307 -0.1993 -0.6620
 1450SOL    HW1 6344   0.078   4.077   6.388  0.5189 -0.2436  0.7511
 1450SOL    HW2 6345   0.096   3.934   6.432 -1.0393 -1.3925 -2.1303
 1451SOL     OW 6346   8.196   6.807   2.887  0.2527 -0.3431  0.2125
 1451SOL    HW1 6347   8.100   6.808   2.883  0.2650 -0.3761 -0.0965
 1451SOL    HW2 6348   8.219   6.896   2.915  0.1205 -0.4027  0.5080
 1452SOL     OW 6349   6.336   4.679   4.193  0.0556 -0.1587  0.7948
 1452SOL    HW1 6350   6.333   4.772   4.174  0.8028  0.1719  2.1771
 1452SOL    HW2 6351   6.372   4.673   4.281 -0.4775 -1.7347  0.9456
 1453SOL     OW 6352   4.597   2.397   3.849  0.2571  0.0215  0.2643
 1453SOL    HW1 6353   4.510   2.362   3.865  0.4423 -1.0658 -0.9695
 1453SOL    HW2 6354   4.647   2.375   3.927 -0.2826 -0.3136  0.5204
 1454SOL     OW 6355   3.614   4.094   6.325 -0.5505 -0.4493 -0.4343
 1454SOL    HW1 6356   3.630   4.010   6.282 -1.5564 -0.4525 -0.8147
 1454SOL    HW2 6357   3.651   4.159   6.265 -2.5249 -0.4035 -1.6621
 1455SOL     OW 6358   2.471   2.028   3.150  0.0987  0.0564  0.7483
 1455SOL    HW1 6359   2.509   1.956   3.201 -0.4462  0.1310  1.2586
 1455SOL    HW2 6360   2.381   2.036   3.181 -0.6774 -0.7500 -1.1071
 1456SOL     OW 6361   6.568   3.754   7.353 -0.8196  0.0824  0.2815
 1456SOL    HW1 6362   6.629   3.772   7.282  0.8142  0.0376  1.6171
 1456SOL    HW2 6363   6.565   3.658   7.358 -3.2734 -0.0367 -1.6001
 1457SOL     OW 6364   6.031   0.796   0.025 -0.4984  0.1367 -0.1983
 1457SOL    HW1 6365   5.969   0.746  -0.027 -0.1904  1.2097 -1.6869
 1457SOL    HW2 6366   6.088   0.731   0.066 -1.2524 -0.7631 -0.5680
 1458SOL     OW 6367   4.866   0.646   1.329 -0.1396  0.2699  0.2285
 1458SOL    HW1 6368   4.922   0.571   1.312  0.2289  0.5093  0.3708
 1458SOL    HW2 6369   4.926   0.720   1.339 -0.5667  0.9012 -1.5026
 1459SOL     OW 6370   8.526   7.211   8.637 -0.2696  0.8540 -0.3940
 1459SOL    HW1 6371   8.621   7.222   8.639 -0.1405 -0.1871 -0.3306
 1459SOL    HW2 6372   8.495   7.280   8.578  0.3848  2.0381  0.5938
 1460SOL     OW 6373   5.249   0.277   6.756 -0.1848  0.1449 -0.4903
 1460SOL    HW1 6374   5.211   0.190   6.741  1.5958 -0.3435 -2.5761
 1460SOL    HW2 6375   5.325   0.261   6.812 -1.4997  0.8361  1.6653
 1461SOL     OW 6376   7.810   5.746   1.045  0.5561  0.4567 -0.4921
 1461SOL    HW1 6377   7.879   5.745   1.112 -0.1673 -1.3574  0.2784
 1461SOL    HW2 6378   7.777   5.836   1.047  1.3117  0.7293  0.7959
 1462SOL     OW 6379   1.219   7.726   5.354  0.3817 -0.2806 -0.5869
 1462SOL    HW1 6380   1.167   7.703   5.277 -2.1384  2.2120  0.1542
 1462SOL    HW2 6381   1.219   7.646   5.408 -1.4954 -0.8273 -1.3098
 1463SOL     OW 6382   3.734   6.882   6.349  0.4177  0.2799  0.1787
 1463SOL    HW1 6383   3.702   6.964   6.311  0.5350 -0.0081 -0.5528
 1463SOL    HW2 6384   3.684   6.814   6.304  0.8110 -0.0870  0.2910
 1464SOL     OW 6385   0.758   2.647   4.971  0.0944  0.7030  0.1754
 1464SOL    HW1 6386   0.785   2.568   4.925 -1.3158  0.4562 -0.2959
 1464SOL    HW2 6387   0.837   2.700   4.978  0.6392  0.1459 -1.3597
 1465SOL     OW 6388   6.409   8.475   2.440 -0.5029 -0.2126 -0.2850
 1465SOL    HW1 6389   6.482   8.440   2.490 -0.0360 -0.6983 -1.2796
 1465SOL    HW2 6390   6.363   8.398   2.408 -2.0479  0.0644  1.1292
 1466SOL     OW 6391   5.530   8.810   2.487 -0.6303 -0.1713  0.1937
 1466SOL    HW1 6392   5.539   8.819   2.392  2.2963 -0.3338  0.3883
 1466SOL    HW2 6393   5.490   8.893   2.514  3.1479  2.2162 -0.7378
 1467SOL     OW 6394   1.428   2.608   3.290  0.2820 -0.3386 -0.1737
 1467SOL    HW1 6395   1.402   2.519   3.265 -1.0869 -0.0726  0.2440
 1467SOL    HW2 6396   1.396   2.664   3.219 -0.2718 -0.0081  0.3279
 1468SOL     OW 6397   7.203   6.965   3.081  0.3791 -0.3293  0.0035
 1468SOL    HW1 6398   7.203   6.946   3.175  0.3413  0.7574  0.2421
 1468SOL    HW2 6399   7.113   6.950   3.053  0.2151  0.0441  0.3087
 1469SOL     OW 6400   3.404   0.361   6.425 -0.2227 -0.1934  0.9446
 1469SOL    HW1 6401   3.415   0.330   6.515  0.0267 -1.3051  0.5448
 1469SOL    HW2 6402   3.483   0.332   6.380 -1.5430 -2.1228 -0.2840
 1470SOL     OW 6403   7.601   2.726   7.070 -0.7328 -0.1427  0.1349
 1470SOL    HW1 6404   7.633   2.814   7.051  0.1888 -0.4395  0.2845
 1470SOL    HW2 6405   7.591   2.685   6.984  1.1719 -0.6945  0.1425
 1471SOL     OW 6406   5.588   1.731   2.833  0.0928 -0.3618 -0.2497
 1471SOL    HW1 6407   5.601   1.741   2.927 -0.7879  0.5717 -0.2143
 1471SOL    HW2 6408   5.649   1.661   2.808  0.3096 -0.6494  1.0094
 1472SOL     OW 6409   1.339   0.262   0.157 -1.0155 -0.0731 -0.2414
 1472SOL    HW1 6410   1.307   0.179   0.193  0.5920 -0.0530  1.4119
 1472SOL    HW2 6411   1.271   0.290   0.097 -0.5503 -3.8646 -2.9022
 1473SOL     OW 6412   0.424   0.030   2.111 -0.6050  0.2560 -1.0173
 1473SOL    HW1 6413   0.426   0.068   2.023  1.9923  0.3995 -0.9836
 1473SOL    HW2 6414   0.443   0.104   2.169  2.1575 -0.5252 -0.7675
 1474SOL     OW 6415   0.102   6.682   2.359 -0.0081 -0.2689  0.4610
 1474SOL    HW1 6416   0.168   6.700   2.426  2.0499 -0.8924 -1.2444
 1474SOL    HW2 6417   0.064   6.598   2.384  0.2469 -0.1658  1.2089
 1475SOL     OW 6418   0.760   8.204   3.823 -0.3106  0.3723  0.2535
 1475SOL    HW1 6419   0.820   8.273   3.795 -1.0414  1.0920  0.4136
 1475SOL    HW2 6420   0.734   8.230   3.912 -0.9815  0.1617  0.1246
 1476SOL     OW 6421   5.519   2.984   2.613 -0.2213 -0.2652 -0.0821
 1476SOL    HW1 6422   5.613   2.993   2.629 -0.7989  0.6211  3.8047
 1476SOL    HW2 6423   5.490   3.072   2.589 -0.2887 -0.1487  0.4153
 1477SOL     OW 6424   4.749   3.380   4.600  0.2628 -0.2848 -0.0983
 1477SOL    HW1 6425   4.685   3.313   4.622 -0.3254  0.7595  1.5334
 1477SOL    HW2 6426   4.718   3.416   4.517 -1.0069 -0.1563  0.4008
 1478SOL     OW 6427   1.854   0.146   3.696  0.4933 -0.0727 -0.6868
 1478SOL    HW1 6428   1.769   0.102   3.697  0.7620 -0.6357 -1.2639
 1478SOL    HW2 6429   1.888   0.129   3.608  1.0247  0.4957 -0.5999
 1479SOL     OW 6430   4.809   3.806   7.142  0.0971 -0.3945  0.0027
 1479SOL    HW1 6431   4.748   3.823   7.214 -0.7334  0.1419 -0.8174
 1479SOL    HW2 6432   4.789   3.872   7.076 -0.8717 -2.3421 -1.7915
 1480SOL     OW 6433   4.153   4.369   8.682 -0.4989  0.1224 -0.0499
 1480SOL    HW1 6434   4.193   4.293   8.723 -1.4801 -0.2343  0.2733
 1480SOL    HW2 6435   4.120   4.338   8.598  2.1738  1.0237 -1.5391
 1481SOL     OW 6436   6.805   7.913   1.048 -0.2517 -0.2545 -0.4197
 1481SOL    HW1 6437   6.831   7.856   0.976 -1.5837 -0.6654 -0.6205
 1481SOL    HW2 6438   6.857   7.882   1.123  2.0585  0.9921 -1.4265
 1482SOL     OW 6439   7.651   7.994   3.409 -0.4844 -0.4034  0.0706
 1482SOL    HW1 6440   7.719   7.968   3.346 -0.0181  1.5034 -0.2561
 1482SOL    HW2 6441   7.683   7.958   3.492 -0.6915 -2.2289 -0.5847
 1483SOL     OW 6442   2.168   2.741   5.370 -0.0191 -0.1043  0.3608
 1483SOL    HW1 6443   2.078   2.723   5.345 -0.4015  0.8013  1.0457
 1483SOL    HW2 6444   2.217   2.735   5.288 -1.2030  2.6067 -0.6799
 1484SOL     OW 6445   5.273   0.823   2.240 -0.3743  0.0902  0.5980
 1484SOL    HW1 6446   5.256   0.813   2.334 -0.1508 -0.4427  0.5831
 1484SOL    HW2 6447   5.315   0.741   2.214  1.3043  0.9571  0.4332
 1485SOL     OW 6448   0.699   2.907   6.894 -0.2761  0.7120  0.0456
 1485SOL    HW1 6449   0.783   2.931   6.855  0.2643  0.3212  0.9592
 1485SOL    HW2 6450   0.718   2.832   6.949 -1.1928  0.7418  0.4233
 1486SOL     OW 6451   6.642   8.495   1.013 -0.2095  0.2925  0.4774
 1486SOL    HW1 6452   6.699   8.544   1.072  0.4151 -1.1988  1.1680
 1486SOL    HW2 6453   6.571   8.463   1.070 -0.8678  0.7642 -0.0569
 1487SOL     OW 6454   6.235   6.663   5.247 -0.1003  0.2192  0.1188
 1487SOL    HW1 6455   6.289   6.589   5.276  0.5265 -0.0024 -1.5298
 1487SOL    HW2 6456   6.156   6.657   5.301  0.7118 -0.5562  1.2803
 1488SOL     OW 6457   7.877   4.772   3.498 -0.3046 -0.7029 -0.4141
 1488SOL    HW1 6458   7.868   4.794   3.406  0.1478  0.3693 -0.2072
 1488SOL    HW2 6459   7.969   4.748   3.509  0.3423  1.8578  0.2893
 1489SOL     OW 6460   0.538   2.361   8.065  0.3830 -0.0976  0.1028
 1489SOL    HW1 6461   0.528   2.333   7.974 -0.2470 -0.3079  0.2362
 1489SOL    HW2 6462   0.500   2.449   8.068 -0.8881 -0.6419  0.4645
 1490SOL     OW 6463   7.640   6.461   2.187 -0.3167 -0.0507 -0.0922
 1490SOL    HW1 6464   7.664   6.369   2.194 -1.8284 -0.5651 -1.0789
 1490SOL    HW2 6465   7.686   6.492   2.109 -0.1395 -0.0833 -0.0012
 1491SOL     OW 6466   7.313   1.115   1.199 -0.3336  0.2641 -0.2911
 1491SOL    HW1 6467   7.333   1.171   1.274 -1.4934  0.5180 -0.1511
 1491SOL    HW2 6468   7.307   1.027   1.236 -2.4570  0.5878  0.2319
 1492SOL     OW 6469   4.065   0.513   0.010 -0.3236  0.6910 -0.0828
 1492SOL    HW1 6470   4.103   0.426   0.021 -0.2555  0.7678  0.3018
 1492SOL    HW2 6471   3.971   0.497   0.004 -0.3758  0.6524  0.7357
 1493SOL     OW 6472   8.546   4.629   8.230 -0.3171 -0.2226  0.2795
 1493SOL    HW1 6473   8.519   4.720   8.214 -1.3992 -0.3252  1.3683
 1493SOL    HW2 6474   8.518   4.581   8.152  0.9071  0.4790 -0.6273
 1494SOL     OW 6475   6.635   4.917   4.662  0.6882  0.6819  0.5804
 1494SOL    HW1 6476   6.695   4.876   4.599  3.3352 -1.5969  4.1703
 1494SOL    HW2 6477   6.568   4.851   4.678  1.2333  0.3547  1.6089
 1495SOL     OW 6478   2.777   3.698   0.271  0.0148 -0.2971  0.3807
 1495SOL    HW1 6479   2.690   3.659   0.261 -1.1985  2.3635 -0.4402
 1495SOL    HW2 6480   2.791   3.745   0.189  0.6818  2.1025  1.7770
 1496SOL     OW 6481   3.681   3.381   6.890 -0.7030 -0.1982  0.6304
 1496SOL    HW1 6482   3.698   3.357   6.981 -1.4058 -0.9672  0.5671
 1496SOL    HW2 6483   3.594   3.347   6.872  0.2724 -2.0053 -1.0087
 1497SOL     OW 6484   1.268   6.706   6.620 -0.8148  0.0099 -0.1596
 1497SOL    HW1 6485   1.236   6.751   6.542  0.3724  0.1595 -0.5781
 1497SOL    HW2 6486   1.204   6.728   6.688 -1.4347  0.5272 -0.8944
 1498SOL     OW 6487   0.148   5.451   8.359  0.1180 -0.0963  0.1878
 1498SOL    HW1 6488   0.088   5.405   8.300  0.7709 -0.1620 -0.4278
 1498SOL    HW2 6489   0.103   5.450   8.444 -0.4524 -0.7257 -0.1148
 1499SOL     OW 6490   3.504   7.686   1.117  0.7778  0.3844  0.1267
 1499SOL    HW1 6491   3.453   7.766   1.113 -0.5273 -0.2666  2.2092
 1499SOL    HW2 6492   3.506   7.662   1.210  1.4269 -1.8004 -0.3663
 1500SOL     OW 6493   4.169   0.598   6.641 -0.2403 -0.2608 -0.3952
 1500SOL    HW1 6494   4.159   0.587   6.736 -0.6480  0.1189 -0.3926
 1500SOL    HW2 6495   4.208   0.515   6.612 -1.2796 -0.8864 -0.0766
 1501SOL     OW 6496   3.785   4.533   4.964  0.0613 -0.1902 -0.1385
 1501SOL    HW1 6497   3.719   4.579   4.911  1.0346  0.5019 -0.7934
 1501SOL    HW2 6498   3.864   4.586   4.954  0.7563 -1.0841  0.5101
 1502SOL     OW 6499   0.212   3.327   4.898  0.1973  0.1485 -0.1371
 1502SOL    HW1 6500   0.199   3.248   4.950  1.1782 -0.4493 -0.7630
 1502SOL    HW2 6501   0.155   3.316   4.822  0.8928 -0.3171 -0.5973
 1503SOL     OW 6502   5.164   2.876   3.539 -0.3761  0.4976  0.0422
 1503SOL    HW1 6503   5.115   2.941   3.589  0.4529  0.6740  0.6320
 1503SOL    HW2 6504   5.252   2.912   3.531 -0.4772  0.4627 -1.5344
 1504SOL     OW 6505   3.580   4.205   0.669  0.3106 -0.0291 -0.1510
 1504SOL    HW1 6506   3.520   4.210   0.594 -2.6222 -1.0140  1.9439
 1504SOL    HW2 6507   3.575   4.291   0.710 -3.1513 -1.1528  2.2978
 1505SOL     OW 6508   5.091   4.054   6.413  0.1141 -0.6731 -0.2697
 1505SOL    HW1 6509   5.164   4.113   6.398  0.6735 -1.2091  0.2777
 1505SOL    HW2 6510   5.028   4.074   6.344  0.1663  0.7423  0.0761
 1506SOL     OW 6511   7.372   8.879   6.367  0.2678 -0.3163 -0.1326
 1506SOL    HW1 6512   7.336   8.889   6.455 -0.7902  1.0671 -0.6947
 1506SOL    HW2 6513   7.447   8.938   6.365  1.8247 -2.1356  0.5675
 1507SOL     OW 6514   8.361   1.420   0.648  0.4226 -0.0936  0.2897
 1507SOL    HW1 6515   8.352   1.514   0.637  0.0955 -0.2552 -1.0240
 1507SOL    HW2 6516   8.448   1.400   0.611 -0.5368 -0.6069 -1.8528
 1508SOL     OW 6517   6.092   5.026   1.254 -0.6869  0.2595  0.0445
 1508SOL    HW1 6518   6.049   5.109   1.276 -2.1175 -0.4616  0.1054
 1508SOL    HW2 6519   6.056   5.003   1.169 -1.1283 -0.8147  0.5048
 1509SOL     OW 6520   4.669   7.500   3.899 -0.0729 -0.2544 -0.1867
 1509SOL    HW1 6521   4.672   7.427   3.961  0.5676  0.0352  0.1303
 1509SOL    HW2 6522   4.760   7.528   3.890 -0.4953  1.9800  1.4767
 1510SOL     OW 6523   5.426   4.496   7.926  0.1754  0.6225  0.3737
 1510SOL    HW1 6524   5.376   4.570   7.961 -3.1335 -2.5909  3.3012
 1510SOL    HW2 6525   5.367   4.454   7.863  1.1649 -0.5107  0.1629
 1511SOL     OW 6526   8.316   6.282   1.522 -0.1723 -0.0142 -0.0167
 1511SOL    HW1 6527   8.299   6.195   1.559  1.4461  0.7986  3.0392
 1511SOL    HW2 6528   8.406   6.302   1.548 -0.5458  2.6461 -0.4305
 1512SOL     OW 6529   2.172   3.249   4.163 -0.2190 -0.5478  0.0119
 1512SOL    HW1 6530   2.164   3.269   4.257  1.0768  0.6090 -0.0800
 1512SOL    HW2 6531   2.098   3.294   4.123  0.5369  0.9704  0.2504
 1513SOL     OW 6532   8.226   7.909   0.796 -0.7361  0.3373 -0.1545
 1513SOL    HW1 6533   8.158   7.844   0.815  1.0019 -2.0590 -1.4722
 1513SOL    HW2 6534   8.212   7.932   0.704  0.2246 -0.2503 -0.4691
 1514SOL     OW 6535   1.272   8.604   7.439 -0.3802 -0.1206  0.1633
 1514SOL    HW1 6536   1.282   8.604   7.535  1.1055 -0.7982  0.0372
 1514SOL    HW2 6537   1.355   8.640   7.406 -1.7028  2.2016 -0.8518
 1515SOL     OW 6538   4.448   7.661   2.868 -0.6148 -0.1512  0.2467
 1515SOL    HW1 6539   4.410   7.749   2.866 -1.0844 -0.3007  1.5248
 1515SOL    HW2 6540   4.375   7.602   2.853 -0.3508 -0.3341 -0.3247
 1516SOL     OW 6541   0.260   5.686   3.670  0.2197  0.3720 -0.8318
 1516SOL    HW1 6542   0.249   5.772   3.709 -3.8923 -1.0824  1.9078
 1516SOL    HW2 6543   0.299   5.632   3.738  0.4910 -0.4858 -1.6344
 1517SOL     OW 6544   2.448   3.501   5.268  0.2502 -0.1901 -0.1141
 1517SOL    HW1 6545   2.409   3.543   5.192  0.7297 -0.1029 -0.3123
 1517SOL    HW2 6546   2.414   3.552   5.343  0.1983  0.0530 -0.3012
 1518SOL     OW 6547   2.090   0.988   2.856  0.3954  0.6207 -0.1822
 1518SOL    HW1 6548   2.062   0.928   2.787 -0.6716  1.0995 -0.1998
 1518SOL    HW2 6549   2.131   1.061   2.810 -0.7401  1.1664 -0.3804
 1519SOL     OW 6550   4.786   5.859   2.899 -0.1949  0.4674 -0.4785
 1519SOL    HW1 6551   4.876   5.891   2.906  0.0254 -0.2243 -0.0817
 1519SOL    HW2 6552   4.773   5.807   2.978 -0.3631 -0.8394 -1.3445
 1520SOL     OW 6553   7.827   0.251   8.564  0.2382  0.1522  0.2005
 1520SOL    HW1 6554   7.836   0.156   8.554  1.0032  0.1959  0.4382
 1520SOL    HW2 6555   7.739   0.270   8.530 -0.2287 -0.7380  0.8625
 1521SOL     OW 6556   6.966   8.709   6.964 -0.1286 -0.1098  0.4302
 1521SOL    HW1 6557   6.936   8.713   7.055 -0.6922 -0.3917  0.2573
 1521SOL    HW2 6558   6.968   8.800   6.935 -0.8078 -0.0856  0.4481
 1522SOL     OW 6559   5.170   0.244   2.987 -0.0842  0.6633  0.1765
 1522SOL    HW1 6560   5.221   0.216   3.063  0.3237  0.9906  0.0242
 1522SOL    HW2 6561   5.079   0.236   3.016 -0.0767 -2.0234 -0.2486
 1523SOL     OW 6562   2.536   5.301   8.280 -0.3380  0.3250  0.3246
 1523SOL    HW1 6563   2.450   5.261   8.278 -0.2717  0.2036 -0.2242
 1523SOL    HW2 6564   2.569   5.292   8.190  0.9621 -1.1927  0.9134
 1524SOL     OW 6565   7.177   5.454   0.992 -0.4502 -0.3226  0.0497
 1524SOL    HW1 6566   7.102   5.403   0.961 -0.6695  0.1309 -0.1713
 1524SOL    HW2 6567   7.176   5.533   0.938  0.5974 -0.6206 -0.4200
 1525SOL     OW 6568   1.533   1.118   3.567  0.1068  0.9762 -0.6013
 1525SOL    HW1 6569   1.466   1.175   3.528 -1.6174 -0.5973 -0.1265
 1525SOL    HW2 6570   1.579   1.080   3.492  0.7150  2.3126 -0.9328
 1526SOL     OW 6571   7.192   3.043   0.331 -0.1923 -0.5093  0.3656
 1526SOL    HW1 6572   7.151   3.115   0.379  0.8560  0.0099  0.5346
 1526SOL    HW2 6573   7.240   2.994   0.397  0.2393 -0.5309  0.0430
 1527SOL     OW 6574   7.114   3.813   3.203 -0.0001 -0.0041  0.1961
 1527SOL    HW1 6575   7.203   3.788   3.177 -0.4614 -2.6064  0.8496
 1527SOL    HW2 6576   7.120   3.827   3.297 -0.4592 -1.3337  0.4491
 1528SOL     OW 6577   5.018   1.560   7.293 -0.4971  0.0876 -0.1839
 1528SOL    HW1 6578   5.076   1.582   7.366 -1.4373 -1.5143  1.1009
 1528SOL    HW2 6579   5.078   1.529   7.224  0.5894  3.4981 -0.9593
 1529SOL     OW 6580   2.971   4.470   7.283  0.4148 -0.5385  0.2448
 1529SOL    HW1 6581   3.048   4.515   7.249 -0.2500  1.2049  0.9102
 1529SOL    HW2 6582   3.006   4.405   7.344  1.3788  1.3939  1.8961
 1530SOL     OW 6583   6.572   1.184   5.545 -0.3826 -0.5695 -0.2696
 1530SOL    HW1 6584   6.663   1.159   5.560  0.7880  1.2123 -3.4050
 1530SOL    HW2 6585   6.544   1.130   5.471 -0.0037  2.3090 -2.7229
 1531SOL     OW 6586   8.486   6.447   8.126  0.3386  0.5121 -0.2331
 1531SOL    HW1 6587   8.507   6.461   8.218  0.8437  2.9714 -0.6530
 1531SOL    HW2 6588   8.572   6.437   8.083  0.1968  0.9852 -0.6410
 1532SOL     OW 6589   6.152   7.422   1.580  0.0750  0.1609  0.2191
 1532SOL    HW1 6590   6.070   7.379   1.606 -0.0612  0.2159 -0.1093
 1532SOL    HW2 6591   6.170   7.387   1.493 -0.8769  1.9287 -0.7280
 1533SOL     OW 6592   7.941   8.463   1.949 -0.7759  0.3618 -0.0625
 1533SOL    HW1 6593   7.959   8.388   2.005 -2.3303  0.7625  1.0473
 1533SOL    HW2 6594   7.966   8.539   2.002  0.3167  0.6833 -0.9877
 1534SOL     OW 6595   6.060   8.277   7.233  0.2599  0.0785 -0.5858
 1534SOL    HW1 6596   6.077   8.183   7.244  0.6559 -0.2530 -3.2913
 1534SOL    HW2 6597   6.133   8.308   7.179 -1.0218  1.4467 -1.6048
 1535SOL     OW 6598   4.789   3.188   3.018  0.3021 -0.1060  0.5271
 1535SOL    HW1 6599   4.869   3.135   3.024  1.6661  1.7871 -0.1107
 1535SOL    HW2 6600   4.789   3.241   3.098 -0.0013  0.3413  0.2324
 1536SOL     OW 6601   3.937   7.142   0.086 -0.2407 -0.1262 -0.3022
 1536SOL    HW1 6602   3.925   7.161   0.179  0.8412 -1.1206  0.0641
 1536SOL    HW2 6603   3.873   7.074   0.066 -0.5085  0.1247 -0.2972
 1537SOL     OW 6604   8.217   3.754   0.020 -0.2779  0.2498 -0.5264
 1537SOL    HW1 6605   8.274   3.723  -0.050  2.3911  0.0421  1.5611
 1537SOL    HW2 6606   8.230   3.848   0.023 -0.7300  0.3158 -0.6015
 1538SOL     OW 6607   7.856   3.252   0.779 -0.1214 -0.0614 -0.0208
 1538SOL    HW1 6608   7.766   3.236   0.807 -0.1137  0.2285  0.1690
 1538SOL    HW2 6609   7.862   3.347   0.770  0.3057 -0.0410  0.4412
 1539SOL     OW 6610   6.546   5.569   1.619 -0.9941  0.3427  0.0562
 1539SOL    HW1 6611   6.589   5.604   1.541 -3.4166  0.4278 -1.3438
 1539SOL    HW2 6612   6.565   5.633   1.688  1.6555 -0.0122 -0.2263
 1540SOL     OW 6613   5.836   5.864   6.409  0.8335 -0.1383  0.4168
 1540SOL    HW1 6614   5.826   5.959   6.414  0.5910 -0.2009  1.6934
 1540SOL    HW2 6615   5.776   5.831   6.476  1.9078 -1.1067  0.9242
 1541SOL     OW 6616   6.248   0.735   1.220  0.7809  0.1377  0.5110
 1541SOL    HW1 6617   6.248   0.822   1.181 -1.8901  0.8418  1.8421
 1541SOL    HW2 6618   6.304   0.743   1.297  1.5741  0.2966 -0.0751
 1542SOL     OW 6619   5.537   4.833   6.665  0.0573  0.1321  0.2137
 1542SOL    HW1 6620   5.578   4.803   6.584 -0.1154  0.2806  0.0681
 1542SOL    HW2 6621   5.483   4.908   6.638  0.0258  0.2042  0.4716
 1543SOL     OW 6622   4.695   6.561   4.459  0.1348 -0.2104  0.5295
 1543SOL    HW1 6623   4.637   6.587   4.388  0.1390  0.6773  0.8466
 1543SOL    HW2 6624   4.708   6.467   4.446  0.1857 -0.0520 -0.6763
 1544SOL     OW 6625   8.890   3.879   5.740  0.0011 -0.5581 -0.3179
 1544SOL    HW1 6626   8.884   3.785   5.760  1.9252 -0.3561  1.5956
 1544SOL    HW2 6627   8.954   3.884   5.669 -0.6255 -0.6977 -0.9118
 1545SOL     OW 6628   4.509   6.083   5.369 -0.2320  0.4018 -0.6164
 1545SOL    HW1 6629   4.533   6.029   5.444 -2.5735  0.8420  0.5593
 1545SOL    HW2 6630   4.505   6.172   5.403 -1.6748  0.5626 -1.1145
 1546SOL     OW 6631   5.456   2.743   5.464  0.3958  0.0382 -0.0929
 1546SOL    HW1 6632   5.386   2.786   5.514  0.2837 -0.6867  0.3809
 1546SOL    HW2 6633   5.424   2.741   5.374 -1.0447 -1.9497  0.3977
 1547SOL     OW 6634   4.521   5.109   6.860  0.0675  0.0357 -0.1706
 1547SOL    HW1 6635   4.603   5.081   6.820 -0.2104  0.2807 -0.9385
 1547SOL    HW2 6636   4.458   5.041   6.836 -0.3812  0.7923 -1.2049
 1548SOL     OW 6637   5.884   0.706   2.508 -0.3190  0.1586 -0.4236
 1548SOL    HW1 6638   5.808   0.695   2.564 -0.4618 -1.0867 -0.8296
 1548SOL    HW2 6639   5.867   0.788   2.461 -1.8855 -0.5681 -1.2100
 1549SOL     OW 6640   1.187   8.786   5.045 -0.3420  0.3200 -0.2054
 1549SOL    HW1 6641   1.109   8.740   5.015  0.7690 -1.6841 -0.1433
 1549SOL    HW2 6642   1.156   8.876   5.061 -2.7010 -0.4839  0.1910
 1550SOL     OW 6643   1.248   1.571   7.213  0.2145 -0.8194  0.6217
 1550SOL    HW1 6644   1.318   1.555   7.149  1.3116  1.5028  1.1527
 1550SOL    HW2 6645   1.255   1.498   7.274  1.0162 -1.5625 -0.3146
 1551SOL     OW 6646   0.655   3.350   7.027 -0.0667 -0.3520  0.4772
 1551SOL    HW1 6647   0.651   3.312   6.939 -2.3667 -0.7021  0.6688
 1551SOL    HW2 6648   0.658   3.275   7.086  0.5016 -0.1283  0.7449
 1552SOL     OW 6649   1.024   6.628   5.409 -0.4172  0.2826 -0.4180
 1552SOL    HW1 6650   1.017   6.635   5.504  1.6362  1.4504 -0.3009
 1552SOL    HW2 6651   1.011   6.535   5.391  3.4485 -0.8117  1.5315
 1553SOL     OW 6652   0.314   0.827   4.813  0.5440 -0.2647 -0.0965
 1553SOL    HW1 6653   0.359   0.893   4.865  1.6943  0.9655 -2.4729
 1553SOL    HW2 6654   0.375   0.753   4.810  1.0145  0.1352 -0.6436
 1554SOL     OW 6655   2.058   1.504   1.168  0.4573  0.2882 -0.3947
 1554SOL    HW1 6656   2.012   1.573   1.120  1.3061 -0.0330 -1.7188
 1554SOL    HW2 6657   2.037   1.424   1.120 -0.3329 -0.3856  0.9860
 1555SOL     OW 6658   7.965   0.489   4.551  0.2724 -0.3010  0.7520
 1555SOL    HW1 6659   7.974   0.484   4.646 -0.5352 -0.1959  0.8422
 1555SOL    HW2 6660   7.963   0.398   4.522 -0.1060 -0.3475  0.9105
 1556SOL     OW 6661   6.499   7.297   8.154 -0.3056 -0.0799  0.6364
 1556SOL    HW1 6662   6.590   7.284   8.128 -0.1742  1.7629  0.0145
 1556SOL    HW2 6663   6.499   7.284   8.249  0.6222 -0.0311  0.6502
 1557SOL     OW 6664   1.893   3.034   0.438  1.0656 -0.0132  0.1162
 1557SOL    HW1 6665   1.867   3.005   0.525 -0.6409  0.5678 -0.1689
 1557SOL    HW2 6666   1.841   2.981   0.378  0.7054  1.0050 -0.4891
 1558SOL     OW 6667   2.143   8.145   3.568 -0.4166  0.3688 -0.5184
 1558SOL    HW1 6668   2.149   8.134   3.473 -0.9837 -0.2326 -0.4965
 1558SOL    HW2 6669   2.145   8.239   3.582  1.9919  0.4434 -0.9574
 1559SOL     OW 6670   1.780   8.322   2.928 -0.0615  0.0891 -0.4244
 1559SOL    HW1 6671   1.834   8.301   2.852 -1.0516 -0.0784 -1.1000
 1559SOL    HW2 6672   1.839   8.369   2.987  0.9773 -0.6297 -0.8647
 1560SOL     OW 6673   3.022   1.640   2.959  0.3120 -0.0187  0.0678
 1560SOL    HW1 6674   3.028   1.678   2.871  0.2998  0.5849  0.3248
 1560SOL    HW2 6675   2.966   1.562   2.947  1.4432 -0.7404 -0.7068
 1561SOL     OW 6676   4.752   7.868   3.337 -0.0303  0.0170  0.0183
 1561SOL    HW1 6677   4.846   7.882   3.350  0.2341  0.2144 -1.7758
 1561SOL    HW2 6678   4.721   7.950   3.298 -0.9349 -0.0989  0.4601
 1562SOL     OW 6679   7.715   4.309   3.305  0.5202 -0.0197  0.4650
 1562SOL    HW1 6680   7.648   4.276   3.364  0.4515  0.5355  0.7089
 1562SOL    HW2 6681   7.771   4.364   3.360  0.6886  0.1850  0.0980
 1563SOL     OW 6682   2.619   2.436   3.322 -0.1657  0.4012 -0.6607
 1563SOL    HW1 6683   2.685   2.485   3.371  0.1885 -0.3734 -0.3503
 1563SOL    HW2 6684   2.660   2.352   3.303 -1.3022 -0.3644  0.1419
 1564SOL     OW 6685   8.080   0.196   4.008 -0.1859 -0.0524  0.2350
 1564SOL    HW1 6686   8.056   0.278   3.966  0.7419  0.1809  0.1440
 1564SOL    HW2 6687   8.024   0.130   3.965 -2.4354  0.7621  1.7213
 1565SOL     OW 6688   7.637   8.082   6.773 -0.1373  0.0572 -0.0533
 1565SOL    HW1 6689   7.680   8.004   6.807  0.8307 -0.1848 -1.7127
 1565SOL    HW2 6690   7.599   8.054   6.690 -2.7881  0.5089  0.9131
 1566SOL     OW 6691   5.550   3.842   0.370  0.0013  0.9619 -0.2050
 1566SOL    HW1 6692   5.630   3.854   0.318 -0.0828  0.9281 -0.3424
 1566SOL    HW2 6693   5.557   3.908   0.439  0.9539 -0.1123  0.7835
 1567SOL     OW 6694   7.570   7.802   8.432 -0.3598 -0.2484 -0.6904
 1567SOL    HW1 6695   7.549   7.895   8.442 -1.8158 -0.6655  0.4671
 1567SOL    HW2 6696   7.496   7.766   8.383  0.0852 -0.8500 -0.9309
 1568SOL     OW 6697   6.949   3.873   8.561 -0.0543  0.2296  0.5859
 1568SOL    HW1 6698   6.999   3.892   8.482 -0.5647  2.6427  0.7638
 1568SOL    HW2 6699   7.004   3.814   8.611  0.4081 -1.1353 -1.3949
 1569SOL     OW 6700   4.447   3.368   2.838 -0.1423  0.3607  0.2517
 1569SOL    HW1 6701   4.472   3.411   2.920 -1.2614  1.3121  0.1172
 1569SOL    HW2 6702   4.505   3.292   2.833  0.9027  1.0426  1.2307
 1570SOL     OW 6703   1.871   8.310   3.378 -0.4017  0.1704 -0.0273
 1570SOL    HW1 6704   1.933   8.282   3.311  1.7780  0.6179  1.6925
 1570SOL    HW2 6705   1.863   8.235   3.437  0.7881  1.0438  1.3088
 1571SOL     OW 6706   6.602   0.737   7.552 -0.4181  0.2670  0.5280
 1571SOL    HW1 6707   6.633   0.814   7.505  0.7762 -1.1996 -1.2127
 1571SOL    HW2 6708   6.530   0.703   7.498 -1.2180  0.3701  1.4986
 1572SOL     OW 6709   2.966   4.407   0.249 -0.2802  0.0334  0.3614
 1572SOL    HW1 6710   2.932   4.483   0.297 -0.0191  0.1450  0.3731
 1572SOL    HW2 6711   2.985   4.441   0.161 -2.8986 -0.6758 -0.5666
 1573SOL     OW 6712   5.451   0.306   2.127 -0.2872  0.4284  0.3067
 1573SOL    HW1 6713   5.509   0.318   2.052  0.2208  0.3189  0.6684
 1573SOL    HW2 6714   5.365   0.331   2.096 -0.0465  0.5739 -0.2543
 1574SOL     OW 6715   7.672   8.037   4.700  0.1244  0.0323  0.3139
 1574SOL    HW1 6716   7.693   8.130   4.707 -1.5036  0.3246  2.1252
 1574SOL    HW2 6717   7.748   7.993   4.739  0.0145  0.7340  1.3869
 1575SOL     OW 6718   8.074   5.951   8.471  0.1775  0.2009 -0.2287
 1575SOL    HW1 6719   8.024   5.970   8.393 -0.2129  1.3781  0.2947
 1575SOL    HW2 6720   8.131   6.027   8.483  1.1575 -0.5328 -0.0805
 1576SOL     OW 6721   1.050   6.331   1.947  0.1839  0.1611 -0.2703
 1576SOL    HW1 6722   1.015   6.420   1.954  0.4536  0.2854 -0.5126
 1576SOL    HW2 6723   0.992   6.279   2.003  0.9616  0.7428  1.1096
 1577SOL     OW 6724   4.551   1.137   4.540 -0.0775 -0.4270  0.8640
 1577SOL    HW1 6725   4.537   1.227   4.510 -0.6943 -0.7498  0.1269
 1577SOL    HW2 6726   4.622   1.143   4.603 -0.0090  0.5578  0.7091
 1578SOL     OW 6727   3.804   7.399   2.716 -0.0198  0.1734 -0.3318
 1578SOL    HW1 6728   3.770   7.333   2.656  0.1965  0.4518 -0.7728
 1578SOL    HW2 6729   3.856   7.350   2.779  0.1409 -0.0816 -0.6582
 1579SOL     OW 6730   5.304   1.053   6.579 -0.8929 -0.5520 -0.3749
 1579SOL    HW1 6731   5.303   0.964   6.613 -0.3431 -1.4578 -2.5623
 1579SOL    HW2 6732   5.350   1.104   6.646 -0.6098 -2.0339  0.6093
 1580SOL     OW 6733   0.416   0.660   7.439 -0.2505 -0.0056  0.1996
 1580SOL    HW1 6734   0.379   0.590   7.493  1.0097  0.0476  1.1746
 1580SOL    HW2 6735   0.475   0.707   7.498 -1.0525  1.8748 -0.4478
 1581SOL     OW 6736   1.600   0.205   3.189 -0.3827  0.3560  0.2807
 1581SOL    HW1 6737   1.546   0.223   3.113  0.7447 -0.0483 -0.6402
 1581SOL    HW2 6738   1.586   0.112   3.207 -1.0007  0.5527  0.8704
 1582SOL     OW 6739   3.646   8.510   1.222 -0.0312 -0.6212 -0.1892
 1582SOL    HW1 6740   3.677   8.599   1.235  0.9791 -1.0934  0.8115
 1582SOL    HW2 6741   3.555   8.511   1.251  0.6370 -0.4167  2.0157
 1583SOL     OW 6742   5.904   2.068   5.102 -0.2332  0.4276 -0.3063
 1583SOL    HW1 6743   5.943   2.002   5.159 -1.5382  0.9379  1.2746
 1583SOL    HW2 6744   5.811   2.045   5.099  0.0138 -0.7120 -3.8614
 1584SOL     OW 6745   6.114   1.783   7.511 -0.2218  0.8376  0.1244
 1584SOL    HW1 6746   6.101   1.814   7.600 -0.8808  1.1719 -0.0861
 1584SOL    HW2 6747   6.109   1.688   7.517  1.0186  0.7862  0.6448
 1585SOL     OW 6748   7.149   6.834   4.012  0.0186 -0.0935 -0.0604
 1585SOL    HW1 6749   7.222   6.871   3.961 -0.0853  0.2360  0.0263
 1585SOL    HW2 6750   7.073   6.841   3.954  0.0077 -0.2101 -0.0601
 1586SOL     OW 6751   1.851   5.873   4.992  0.8328 -0.0437 -0.0850
 1586SOL    HW1 6752   1.828   5.804   5.055  2.0032 -0.1167  0.2802
 1586SOL    HW2 6753   1.824   5.837   4.908 -1.2658  0.2790  0.3957
 1587SOL     OW 6754   6.591   3.410   3.446  0.3696 -0.4236  0.0430
 1587SOL    HW1 6755   6.600   3.416   3.541  3.4027 -0.5069 -0.1410
 1587SOL    HW2 6756   6.614   3.498   3.415 -1.1346 -0.2410 -0.6341
 1588SOL     OW 6757   3.007   8.020   3.676  0.3450 -0.0489  0.5120
 1588SOL    HW1 6758   2.983   8.070   3.753  1.5746  0.0579  0.8558
 1588SOL    HW2 6759   2.942   8.044   3.610  1.3874  2.7369  0.3653
 1589SOL     OW 6760   6.173   3.887   6.472  0.2166 -0.3510  0.0802
 1589SOL    HW1 6761   6.232   3.902   6.397 -0.5043 -0.3320 -0.4918
 1589SOL    HW2 6762   6.182   3.793   6.490 -0.8339 -0.7093 -1.1007
 1590SOL     OW 6763   6.815   7.973   3.747 -0.2167 -0.2490 -0.4397
 1590SOL    HW1 6764   6.872   7.909   3.788  0.9484  0.5512 -0.7588
 1590SOL    HW2 6765   6.832   7.965   3.653  0.5617  1.0540 -0.4363
 1591SOL     OW 6766   5.182   2.648   4.718  0.1986 -0.6002 -0.1964
 1591SOL    HW1 6767   5.241   2.623   4.789  0.2567 -1.8825 -0.6812
 1591SOL    HW2 6768   5.097   2.658   4.761  0.3865 -0.6258  0.1838
 1592SOL     OW 6769   5.698   2.859   4.368  0.6263  0.0946  0.1463
 1592SOL    HW1 6770   5.777   2.855   4.421  1.3369  0.0591 -0.8978
 1592SOL    HW2 6771   5.645   2.785   4.399  0.8893  0.2549  1.0068
 1593SOL     OW 6772   4.912   1.233   7.085  0.5189 -0.1222  0.6243
 1593SOL    HW1 6773   4.904   1.141   7.060  0.6053 -0.4410  1.7061
 1593SOL    HW2 6774   5.007   1.249   7.086  0.5252 -0.1605  0.8710
 1594SOL     OW 6775   2.551   5.970   6.464  0.0701 -0.7233 -0.5852
 1594SOL    HW1 6776   2.642   5.998   6.453  0.4376 -1.4867  0.4208
 1594SOL    HW2 6777   2.514   6.032   6.527 -0.6270  0.6286 -2.2395
 1595SOL     OW 6778   4.991   7.957   4.322 -0.2576  0.1650  0.2047
 1595SOL    HW1 6779   4.960   7.884   4.375 -0.5523 -0.0670 -0.2780
 1595SOL    HW2 6780   4.946   8.033   4.357  0.7289  0.2784  1.3003
 1596SOL     OW 6781   2.769   5.414   3.082  0.3056 -0.0387 -0.5126
 1596SOL    HW1 6782   2.756   5.321   3.063  0.3389  0.1990 -1.7523
 1596SOL    HW2 6783   2.849   5.416   3.135 -0.5672 -0.8351  0.9099
 1597SOL     OW 6784   7.429   5.022   8.597 -0.5474 -0.3017  0.0093
 1597SOL    HW1 6785   7.369   4.949   8.612 -2.0718  1.0502  0.7216
 1597SOL    HW2 6786   7.381   5.099   8.624  0.2268  1.2601 -2.7111
 1598SOL     OW 6787   4.559   5.250   2.968  0.7737  0.0181  0.0855
 1598SOL    HW1 6788   4.512   5.264   3.051 -0.7112  1.4926 -0.9435
 1598SOL    HW2 6789   4.612   5.328   2.956  0.4347  0.1423 -0.6851
 1599SOL     OW 6790   0.369   5.059   5.443 -0.3790  0.0251 -0.8283
 1599SOL    HW1 6791   0.294   5.115   5.423  0.3597  0.8965 -1.2407
 1599SOL    HW2 6792   0.432   5.078   5.374  0.1920 -0.7651 -0.5425
 1600SOL     OW 6793   4.046   4.767   1.770 -0.0286  0.4998 -0.4140
 1600SOL    HW1 6794   4.032   4.773   1.675 -0.1642 -1.1289 -0.5293
 1600SOL    HW2 6795   4.030   4.856   1.802  0.2577  1.1375 -1.9419
 1601SOL     OW 6796   7.939   7.807   4.308 -0.3585 -0.4105 -0.2538
 1601SOL    HW1 6797   7.962   7.873   4.373  2.2862 -1.3076 -0.1736
 1601SOL    HW2 6798   7.860   7.841   4.266 -1.1876  0.9878  2.2517
 1602SOL     OW 6799   7.902   8.579   7.417 -0.3074 -0.1329 -0.4557
 1602SOL    HW1 6800   7.865   8.610   7.335 -0.9998 -1.5212 -0.6943
 1602SOL    HW2 6801   7.981   8.531   7.392  0.0470  0.3100 -0.2072
 1603SOL     OW 6802   0.719   5.345   8.825  0.0481  0.2523 -0.7165
 1603SOL    HW1 6803   0.685   5.323   8.912  0.6138 -2.5465 -1.1156
 1603SOL    HW2 6804   0.774   5.422   8.840 -1.5888  1.1910  0.9764
 1604SOL     OW 6805   8.396   8.787   1.082  0.2824  0.3809 -0.2663
 1604SOL    HW1 6806   8.390   8.783   1.177  0.6782 -1.2695 -0.2856
 1604SOL    HW2 6807   8.459   8.857   1.065  1.9721 -0.7987  0.7888
 1605SOL     OW 6808   0.008   6.123   6.351  0.2317  0.5029 -0.6425
 1605SOL    HW1 6809   0.024   6.217   6.360 -0.8921  0.6780 -0.3109
 1605SOL    HW2 6810   0.074   6.082   6.407  1.4613  1.0214 -1.6620
 1606SOL     OW 6811   4.792   0.727   3.477  0.3212 -0.0517 -0.0060
 1606SOL    HW1 6812   4.804   0.680   3.559  0.4268 -1.7349 -0.9466
 1606SOL    HW2 6813   4.880   0.747   3.447  0.2649  1.4138  0.7271
 1607SOL     OW 6814   8.519   1.484   4.585  0.2833  0.7363 -0.4600
 1607SOL    HW1 6815   8.491   1.507   4.497 -0.5382  0.6990 -0.2212
 1607SOL    HW2 6816   8.517   1.388   4.587 -2.2340  0.7124  0.3269
 1608SOL     OW 6817   8.451   6.906   2.216 -0.1134  0.5904 -0.5872
 1608SOL    HW1 6818   8.416   6.939   2.298  0.3386 -0.2804 -0.0217
 1608SOL    HW2 6819   8.543   6.886   2.235 -0.0937  0.0456 -1.1885
 1609SOL     OW 6820   1.005   7.960   0.424 -0.2479 -0.3269 -0.4399
 1609SOL    HW1 6821   0.983   7.889   0.485 -0.9865 -1.1608 -1.6198
 1609SOL    HW2 6822   1.051   7.916   0.352  1.2787  0.7431 -0.1739
 1610SOL     OW 6823   4.259   6.379   0.168 -0.2243 -0.6831  1.0103
 1610SOL    HW1 6824   4.168   6.374   0.198 -1.2907  0.5955 -1.6448
 1610SOL    HW2 6825   4.280   6.290   0.139 -1.7188 -0.4831 -0.9420
 1611SOL     OW 6826   3.461   7.081   5.525  0.0666  0.3563  0.0262
 1611SOL    HW1 6827   3.526   7.147   5.551  2.4871 -1.4901 -1.0075
 1611SOL    HW2 6828   3.505   7.029   5.458 -2.0274 -1.8476  0.2427
 1612SOL     OW 6829   4.314   3.412   8.624  0.2424  0.1516  0.2981
 1612SOL    HW1 6830   4.315   3.319   8.645 -0.2474  0.3331  1.1951
 1612SOL    HW2 6831   4.357   3.418   8.538 -1.8651 -1.1988 -0.9563
 1613SOL     OW 6832   6.394   0.895   2.799 -0.5507  0.0903 -0.0240
 1613SOL    HW1 6833   6.395   0.801   2.817  0.0436  0.0939 -0.0129
 1613SOL    HW2 6834   6.345   0.933   2.872 -1.5423 -0.2885 -0.4704
 1614SOL     OW 6835   5.957   7.199   6.707 -0.4147  0.3620  0.0476
 1614SOL    HW1 6836   5.898   7.221   6.635  1.0302  0.3764 -1.1828
 1614SOL    HW2 6837   5.979   7.282   6.747 -1.5566  0.3206  0.8371
 1615SOL     OW 6838   8.496   3.691   0.029  0.4571  0.3223  0.1026
 1615SOL    HW1 6839   8.522   3.781   0.010 -2.2591  0.7844 -2.1254
 1615SOL    HW2 6840   8.447   3.696   0.111  0.8837  0.7468  0.3347
 1616SOL     OW 6841   0.205   5.900   3.098 -0.1290  0.7901 -0.2581
 1616SOL    HW1 6842   0.117   5.930   3.078  0.2806  1.5634 -0.9226
 1616SOL    HW2 6843   0.227   5.944   3.180 -0.5404  0.1965  0.1854
 1617SOL     OW 6844   3.072   2.762   5.011 -0.1353  0.0361  0.6296
 1617SOL    HW1 6845   3.023   2.703   5.068 -1.0458  1.0581  0.9255
 1617SOL    HW2 6846   3.047   2.737   4.922  0.3237 -0.7284  0.7063
 1618SOL     OW 6847   1.404   8.583   0.135  0.9347 -0.2387  0.6427
 1618SOL    HW1 6848   1.466   8.639   0.088 -1.4373  1.6827 -0.4476
 1618SOL    HW2 6849   1.376   8.636   0.210  1.1212 -1.3823  1.5537
 1619SOL     OW 6850   5.329   7.952   0.347  0.3268 -0.0699  0.0296
 1619SOL    HW1 6851   5.267   8.001   0.294 -0.6298 -0.8872  0.3443
 1619SOL    HW2 6852   5.416   7.979   0.315 -0.2012  0.3743 -1.0864
 1620SOL     OW 6853   0.445   0.448   6.172 -0.2956  0.3016 -0.1272
 1620SOL    HW1 6854   0.378   0.509   6.142  0.7401  1.5189 -0.0855
 1620SOL    HW2 6855   0.443   0.454   6.267 -0.4744 -0.0562 -0.1069
 1621SOL     OW 6856   4.835   0.199   1.108 -0.7596 -0.0802 -0.0908
 1621SOL    HW1 6857   4.819   0.286   1.145 -0.5315 -0.6990  1.5593
 1621SOL    HW2 6858   4.928   0.198   1.087 -1.0299  0.5222 -1.4437
 1622SOL     OW 6859   3.978   6.068   6.347 -0.6428  0.6063 -0.3253
 1622SOL    HW1 6860   3.916   6.061   6.419 -1.3593  1.7411 -0.7921
 1622SOL    HW2 6861   4.036   6.141   6.372 -0.9922  1.1086 -0.9373
 1623SOL     OW 6862   1.244   2.334   8.667  0.5306  0.1973 -0.1619
 1623SOL    HW1 6863   1.183   2.308   8.598  1.4952 -0.0266 -0.9621
 1623SOL    HW2 6864   1.220   2.424   8.688  1.3897  0.9572 -2.1581
 1624SOL     OW 6865   7.557   2.101   1.525 -0.1737 -0.5456  0.1951
 1624SOL    HW1 6866   7.498   2.154   1.472  1.2056  1.4351  0.5286
 1624SOL    HW2 6867   7.571   2.152   1.604  2.3879 -0.6233 -0.1181
 1625SOL     OW 6868   0.487   5.292   6.092 -0.0274  0.0276  0.8191
 1625SOL    HW1 6869   0.540   5.365   6.123  0.2874  0.5777 -0.8830
 1625SOL    HW2 6870   0.518   5.276   6.003  0.3421 -2.6406  1.3585
 1626SOL     OW 6871   7.085   2.321   7.821 -0.3493  0.6029  0.3459
 1626SOL    HW1 6872   7.175   2.304   7.796 -0.2956  1.5675 -0.1610
 1626SOL    HW2 6873   7.078   2.286   7.910 -0.0387 -1.2198 -0.3219
 1627SOL     OW 6874   2.612   3.837   7.873 -0.6238  0.5781 -0.2044
 1627SOL    HW1 6875   2.650   3.750   7.887  0.3985  1.0306 -0.0612
 1627SOL    HW2 6876   2.683   3.898   7.896 -0.8591  1.4257 -1.6290
 1628SOL     OW 6877   3.045   0.731   7.946 -0.0619 -0.2270  0.2920
 1628SOL    HW1 6878   2.989   0.796   7.989 -0.9957 -0.9099  0.1255
 1628SOL    HW2 6879   3.104   0.783   7.891  0.9753  0.6517  2.1511
 1629SOL     OW 6880   6.779   8.333   6.110 -0.4543 -0.2995 -0.2653
 1629SOL    HW1 6881   6.867   8.368   6.099  0.1023 -0.1079  3.4366
 1629SOL    HW2 6882   6.722   8.410   6.113 -0.2242 -0.1483  0.6918
 1630SOL     OW 6883   3.547   3.792   1.187  0.1465  0.1955 -0.3956
 1630SOL    HW1 6884   3.505   3.870   1.223 -1.3665 -0.0248 -1.5966
 1630SOL    HW2 6885   3.620   3.826   1.135  0.9382  0.6432  0.9768
 1631SOL     OW 6886   7.834   0.177   3.295  0.2174  0.2057  0.0375
 1631SOL    HW1 6887   7.815   0.242   3.227 -0.2043 -0.9044 -0.9488
 1631SOL    HW2 6888   7.775   0.199   3.367  1.3500  2.0031  0.4925
 1632SOL     OW 6889   0.052   1.520   7.588 -0.0522 -0.2099 -0.5611
 1632SOL    HW1 6890   0.001   1.550   7.663 -0.7096 -0.1742 -1.0160
 1632SOL    HW2 6891   0.032   1.427   7.580 -1.7376  0.2194 -2.0116
 1633SOL     OW 6892   5.949   4.546   5.626 -0.2942  0.0175 -0.1405
 1633SOL    HW1 6893   5.986   4.607   5.691  0.0579 -0.7112  0.3564
 1633SOL    HW2 6894   5.940   4.463   5.674  0.1763 -0.5936 -1.0965
 1634SOL     OW 6895   1.908   5.694   4.745 -0.2850  0.2585  0.4113
 1634SOL    HW1 6896   1.959   5.641   4.806 -1.1362  0.6451  1.4869
 1634SOL    HW2 6897   1.973   5.753   4.705  0.3976 -0.4997  0.3846
 1635SOL     OW 6898   2.662   4.853   6.308  0.3048 -0.3979 -0.0916
 1635SOL    HW1 6899   2.605   4.923   6.275  0.2265 -0.8374 -0.9279
 1635SOL    HW2 6900   2.637   4.843   6.400 -1.5486 -1.1147 -0.6297
 1636SOL     OW 6901   4.111   0.017   6.069 -0.1788  0.1573  0.6643
 1636SOL    HW1 6902   4.063   0.046   5.991 -1.0643 -0.3569  0.9970
 1636SOL    HW2 6903   4.200   0.047   6.055 -0.5545  0.9829 -0.0710
 1637SOL     OW 6904   6.776   6.002   3.673  0.2518  0.0317  0.1186
 1637SOL    HW1 6905   6.700   6.018   3.728 -0.0750  0.2766 -0.3938
 1637SOL    HW2 6906   6.773   6.071   3.607  1.8157  0.9991  1.0067
 1638SOL     OW 6907   4.126   8.413   1.164  0.2903 -0.2541  0.4446
 1638SOL    HW1 6908   4.171   8.330   1.151 -1.5969 -1.1152 -1.0111
 1638SOL    HW2 6909   4.035   8.390   1.180 -0.8857  1.5048 -2.7107
 1639SOL     OW 6910   1.067   1.904   2.274 -0.0941 -0.2329 -0.0997
 1639SOL    HW1 6911   1.009   1.936   2.343  0.2010  0.0911  0.0043
 1639SOL    HW2 6912   1.029   1.938   2.193 -0.9500 -1.3746 -0.1882
 1640SOL     OW 6913   6.869   2.698   7.656  0.2299  0.3154 -0.2226
 1640SOL    HW1 6914   6.842   2.607   7.640 -1.3371  0.7355 -0.1146
 1640SOL    HW2 6915   6.787   2.747   7.662  1.0370  2.0368 -1.9658
 1641SOL     OW 6916   3.389   3.238   4.535  0.1456  0.0243  0.0058
 1641SOL    HW1 6917   3.328   3.206   4.469  0.0456  1.9847 -0.9343
 1641SOL    HW2 6918   3.335   3.295   4.591  0.7810  0.5383  0.1027
 1642SOL     OW 6919   0.876   3.321   2.655 -0.0046  0.4418  0.2555
 1642SOL    HW1 6920   0.968   3.340   2.637  0.0628  1.1763  1.2496
 1642SOL    HW2 6921   0.862   3.352   2.745 -1.2880  0.6068  0.0315
 1643SOL     OW 6922   3.712   2.220   3.746  0.1058 -0.2251  0.2937
 1643SOL    HW1 6923   3.681   2.139   3.788  2.0368 -0.1089  2.0713
 1643SOL    HW2 6924   3.685   2.289   3.806 -0.6879  0.4108 -0.7525
 1644SOL     OW 6925   7.738   6.969   8.652 -0.4881  0.3449  0.0053
 1644SOL    HW1 6926   7.787   7.049   8.672 -1.1263  0.4927  1.1310
 1644SOL    HW2 6927   7.783   6.900   8.701 -0.0263  0.0419 -0.8436
 1645SOL     OW 6928   2.832   5.204   7.029  0.0666 -0.1291  0.1162
 1645SOL    HW1 6929   2.886   5.251   6.965  1.6731 -1.7331  0.1776
 1645SOL    HW2 6930   2.813   5.120   6.986  0.9160 -1.1177  1.5555
 1646SOL     OW 6931   0.988   6.169   3.674 -0.2070  0.2351  0.5618
 1646SOL    HW1 6932   1.054   6.102   3.659 -0.9889 -0.3988 -0.1805
 1646SOL    HW2 6933   0.909   6.120   3.697 -1.5485  0.6514 -2.6642
 1647SOL     OW 6934   2.382   1.285   2.983  0.3155 -0.2558 -0.1968
 1647SOL    HW1 6935   2.442   1.350   3.019  1.3638 -0.6670 -1.1312
 1647SOL    HW2 6936   2.361   1.227   3.057  0.4762  0.3270  0.3117
 1648SOL     OW 6937   1.405   5.026   6.511  0.6527 -0.3043  0.0874
 1648SOL    HW1 6938   1.469   5.078   6.463  0.7426 -1.9569 -1.6812
 1648SOL    HW2 6939   1.454   4.987   6.583  0.8708  0.9602  0.6504
 1649SOL     OW 6940   0.391   2.851   4.882 -0.1850 -0.4134  0.3272
 1649SOL    HW1 6941   0.400   2.783   4.948  0.6534 -0.1345  0.5123
 1649SOL    HW2 6942   0.481   2.867   4.852 -0.5364 -0.4932 -0.8342
 1650SOL     OW 6943   2.587   8.705   1.104 -0.3359  0.7944 -0.1662
 1650SOL    HW1 6944   2.680   8.724   1.089 -0.3013  0.3339 -0.5452
 1650SOL    HW2 6945   2.541   8.778   1.064 -0.1291  1.1740  0.2760
 1651SOL     OW 6946   5.506   3.010   8.510  0.0576 -0.0248 -0.4296
 1651SOL    HW1 6947   5.580   2.952   8.495  0.9973  0.8639  0.6107
 1651SOL    HW2 6948   5.540   3.098   8.495 -0.5362  0.4579  0.8529
 1652SOL     OW 6949   8.682   6.517   0.771 -0.3348 -0.7423  0.2203
 1652SOL    HW1 6950   8.590   6.491   0.766 -0.1823 -1.3341  0.4054
 1652SOL    HW2 6951   8.706   6.507   0.863  0.1689 -1.5241  0.0227
 1653SOL     OW 6952   3.183   1.052   1.689 -0.0127  0.2838  0.2447
 1653SOL    HW1 6953   3.112   1.110   1.663  0.2619  0.4742 -0.0834
 1653SOL    HW2 6954   3.144   0.995   1.755 -0.5433  0.2188 -0.1168
 1654SOL     OW 6955   6.558   0.966   8.744 -0.3443 -0.0819 -0.1527
 1654SOL    HW1 6956   6.569   0.907   8.670  0.4189 -0.4716  0.2543
 1654SOL    HW2 6957   6.639   0.956   8.794 -1.2683 -0.6376  1.2997
 1655SOL     OW 6958   3.171   5.685   4.398 -0.1984  0.1602 -0.1728
 1655SOL    HW1 6959   3.190   5.762   4.451 -0.1839  0.2964 -0.3749
 1655SOL    HW2 6960   3.077   5.672   4.408 -0.1961  0.1862 -0.1153
 1656SOL     OW 6961   8.190   2.392   5.386  0.2908  0.0606 -0.1166
 1656SOL    HW1 6962   8.147   2.393   5.471  0.4762  0.1108 -0.0227
 1656SOL    HW2 6963   8.213   2.484   5.370 -2.5851  0.6279 -1.6780
 1657SOL     OW 6964   0.344   7.640   3.223 -0.2667 -0.0284 -0.0051
 1657SOL    HW1 6965   0.395   7.645   3.303 -1.2164  0.4480  0.5800
 1657SOL    HW2 6966   0.294   7.721   3.221 -0.6174 -0.2534 -0.8311
 1658SOL     OW 6967   7.407   0.825   5.296 -0.2210  0.1189 -0.1291
 1658SOL    HW1 6968   7.344   0.896   5.309  0.7003  0.6776  1.5193
 1658SOL    HW2 6969   7.401   0.805   5.203 -1.7862  1.1384 -0.2890
 1659SOL     OW 6970   3.260   3.005   6.999  0.3342  0.2495  0.4338
 1659SOL    HW1 6971   3.321   3.034   6.932  1.4339 -1.3762  0.6615
 1659SOL    HW2 6972   3.227   3.085   7.039 -0.3214  1.2636 -1.9722
 1660SOL     OW 6973   4.928   1.628   0.643 -0.8167  0.0400  0.1268
 1660SOL    HW1 6974   4.909   1.555   0.703 -1.1903  0.5090  0.5893
 1660SOL    HW2 6975   4.871   1.613   0.568  0.5078 -1.2149 -0.6888
 1661SOL     OW 6976   7.963   0.900   6.148 -0.2386  0.0672  0.9783
 1661SOL    HW1 6977   8.049   0.898   6.189  0.0737 -1.2332  0.3128
 1661SOL    HW2 6978   7.902   0.874   6.217  0.1265 -0.8229  0.9750
 1662SOL     OW 6979   2.586   8.148   0.926 -0.6897  0.1676  0.2864
 1662SOL    HW1 6980   2.494   8.166   0.905 -1.6741 -1.4405  2.8099
 1662SOL    HW2 6981   2.594   8.053   0.918  0.4506  0.1754  1.1545
 1663SOL     OW 6982   3.370   2.562   0.058  0.8783  0.2519  0.0416
 1663SOL    HW1 6983   3.356   2.468   0.071  2.9787 -0.0319  0.6524
 1663SOL    HW2 6984   3.287   2.602   0.084 -0.2573 -1.4385 -0.7374
 1664SOL     OW 6985   4.051   6.440   6.883  0.3117 -0.0175 -0.2712
 1664SOL    HW1 6986   4.009   6.373   6.829 -2.1435  1.0120  0.2240
 1664SOL    HW2 6987   3.981   6.503   6.901  0.7449 -0.5683  4.5906
 1665SOL     OW 6988   3.629   8.423   7.004 -0.1640 -0.2790  0.4675
 1665SOL    HW1 6989   3.566   8.359   7.037 -0.4536 -0.0077  0.4500
 1665SOL    HW2 6990   3.615   8.500   7.058 -0.6098  0.1557 -0.2438
 1666SOL     OW 6991   5.193   0.567   7.367  0.3920 -0.5097 -0.3927
 1666SOL    HW1 6992   5.207   0.483   7.411  0.8421  0.1431  0.7213
 1666SOL    HW2 6993   5.227   0.632   7.427  2.6771  0.3130 -2.4336
 1667SOL     OW 6994   6.447   6.745   1.449 -0.5735 -0.2061  0.9046
 1667SOL    HW1 6995   6.386   6.767   1.379  0.8394  1.0548  0.0006
 1667SOL    HW2 6996   6.520   6.700   1.405 -0.1080 -0.2648  1.7035
 1668SOL     OW 6997   2.213   2.384   6.756  0.3733 -0.2527 -0.4318
 1668SOL    HW1 6998   2.258   2.450   6.703 -1.7970  1.0879 -0.7296
 1668SOL    HW2 6999   2.266   2.377   6.836  0.4011  2.3433 -0.1293
 1669SOL     OW 7000   6.376   4.410   3.553 -0.3718  0.5681  0.4486
 1669SOL    HW1 7001   6.465   4.377   3.550  0.0480  1.5934  0.9670
 1669SOL    HW2 7002   6.372   4.475   3.483  0.0295  2.1944  1.8653
 1670SOL     OW 7003   1.392   2.948   0.808  0.5269 -0.2335  0.3869
 1670SOL    HW1 7004   1.333   2.915   0.740 -0.5082 -0.4677  1.3846
 1670SOL    HW2 7005   1.437   3.022   0.766  0.4996 -0.8723 -0.8100
 1671SOL     OW 7006   4.848   0.199   8.031 -0.7132 -0.5276 -0.2179
 1671SOL    HW1 7007   4.836   0.191   8.126  0.7582 -3.0100 -0.1469
 1671SOL    HW2 7008   4.770   0.244   8.000 -0.5738  1.6516  2.3055
 1672SOL     OW 7009   4.037   3.518   7.324  0.4040 -0.0222 -0.3358
 1672SOL    HW1 7010   3.962   3.488   7.274 -0.1317 -0.1516  0.5343
 1672SOL    HW2 7011   4.070   3.593   7.274 -1.9187  1.7563  0.6149
 1673SOL     OW 7012   7.917   6.474   2.099 -0.2244  0.5179  0.3454
 1673SOL    HW1 7013   7.872   6.434   2.025  1.2060  0.3000 -0.4502
 1673SOL    HW2 7014   7.915   6.568   2.081 -1.0439  0.5821  0.7297
 1674SOL     OW 7015   5.172   2.092   6.270  0.1964 -0.4248 -0.5857
 1674SOL    HW1 7016   5.143   2.006   6.242 -1.7666 -0.1780  0.5049
 1674SOL    HW2 7017   5.165   2.147   6.192 -2.0775 -0.4797 -0.4954
 1675SOL     OW 7018   6.103   6.500   1.873 -0.3464 -0.1238 -0.1823
 1675SOL    HW1 7019   6.056   6.581   1.856 -0.2042  0.4802  1.9554
 1675SOL    HW2 7020   6.192   6.528   1.897 -0.2299 -0.9092  0.3503
 1676SOL     OW 7021   1.548   1.253   0.227  0.2074  0.4877 -0.0399
 1676SOL    HW1 7022   1.619   1.210   0.180 -0.9299 -0.3332 -1.0865
 1676SOL    HW2 7023   1.533   1.198   0.304 -0.9638 -0.8497 -1.1596
 1677SOL     OW 7024   5.508   0.690   7.167  0.1162 -0.1373  0.0744
 1677SOL    HW1 7025   5.419   0.700   7.201  0.2634 -1.2500  0.8596
 1677SOL    HW2 7026   5.496   0.647   7.082 -0.0369 -2.3500  1.1451
 1678SOL     OW 7027   0.078   3.601   8.864  0.2802 -0.3378  0.2193
 1678SOL    HW1 7028  -0.012   3.575   8.884 -0.4907  0.9520 -1.3688
 1678SOL    HW2 7029   0.126   3.518   8.860 -1.0831 -1.1418 -0.0805
 1679SOL     OW 7030   1.999   7.724   7.116 -0.4960 -0.1988  0.4019
 1679SOL    HW1 7031   2.087   7.735   7.151 -1.0909  2.0974  1.3738
 1679SOL    HW2 7032   2.010   7.729   7.021  0.3308  1.2580  0.5455
 1680SOL     OW 7033   5.586   0.336   1.916 -0.8544  0.5206  0.3398
 1680SOL    HW1 7034   5.643   0.413   1.919 -1.5952  1.1840 -1.1161
 1680SOL    HW2 7035   5.638   0.269   1.872 -0.0889  0.0570  1.9079
 1681SOL     OW 7036   4.386   3.628   3.856 -0.2258  0.5333 -0.3098
 1681SOL    HW1 7037   4.370   3.533   3.849 -0.9410  0.6093  0.1947
 1681SOL    HW2 7038   4.331   3.666   3.788 -1.4291  0.7165  0.7321
 1682SOL     OW 7039   4.403   2.719   8.650 -0.5368  0.5521  0.4089
 1682SOL    HW1 7040   4.327   2.668   8.677  0.0870 -1.0413 -0.6793
 1682SOL    HW2 7041   4.411   2.701   8.556  1.4256  0.3400  0.5850
 1683SOL     OW 7042   7.945   4.748   1.234 -0.0385  0.0552  0.3412
 1683SOL    HW1 7043   7.883   4.817   1.210 -0.0548 -0.8321 -2.3959
 1683SOL    HW2 7044   7.998   4.787   1.304 -0.9396  2.3162 -0.1683
 1684SOL     OW 7045   6.793   2.355   6.913  0.2869 -0.5168 -0.5461
 1684SOL    HW1 7046   6.867   2.416   6.910  0.1503 -0.2317  0.9479
 1684SOL    HW2 7047   6.825   2.281   6.964 -0.5238 -0.2595  0.3703
 1685SOL     OW 7048   2.954   0.734   1.803  0.2821  0.1736 -0.0337
 1685SOL    HW1 7049   3.049   0.732   1.801  0.2919  0.6285  0.0228
 1685SOL    HW2 7050   2.931   0.827   1.801 -0.1569  0.0704  0.0312
 1686SOL     OW 7051   0.819   2.969   1.891 -0.4027  0.4586 -0.2710
 1686SOL    HW1 7052   0.844   2.929   1.808 -0.3939  2.0334 -1.0670
 1686SOL    HW2 7053   0.731   2.935   1.909  0.0372 -0.7503 -0.3404
 1687SOL     OW 7054   1.146   6.620   3.471 -0.2348 -0.4330  0.0005
 1687SOL    HW1 7055   1.080   6.550   3.462 -1.7235  0.7211  1.2867
 1687SOL    HW2 7056   1.224   6.575   3.501 -1.0322 -1.6189  0.3881
 1688SOL     OW 7057   6.785   3.392   8.513  0.5543 -0.2422 -0.1119
 1688SOL    HW1 7058   6.741   3.308   8.528 -1.2183  0.8760  1.3108
 1688SOL    HW2 7059   6.769   3.442   8.593 -0.0831  2.1531 -1.6528
 1689SOL     OW 7060   3.461   8.365   4.276 -0.1653 -0.2162 -0.1646
 1689SOL    HW1 7061   3.470   8.306   4.351 -1.8076  0.8565  0.9233
 1689SOL    HW2 7062   3.546   8.408   4.269 -0.3756  0.6559  1.9563
 1690SOL     OW 7063   8.259   7.730   6.196 -0.2631 -0.1951 -0.2931
 1690SOL    HW1 7064   8.274   7.743   6.289 -1.6997 -1.7587  0.2105
 1690SOL    HW2 7065   8.304   7.802   6.153  2.3399 -0.6696  1.4557
 1691SOL     OW 7066   8.627   3.251   2.327  0.5299  0.2646  0.2439
 1691SOL    HW1 7067   8.592   3.295   2.405 -0.7732 -0.5417  0.1367
 1691SOL    HW2 7068   8.690   3.188   2.362  1.2379  1.0843  0.5017
 1692SOL     OW 7069   0.262   5.319   4.464  0.0964  0.4081 -0.0853
 1692SOL    HW1 7070   0.189   5.378   4.480  0.1392  0.5393 -0.3769
 1692SOL    HW2 7071   0.252   5.292   4.373 -0.4271 -0.7341  0.2916
 1693SOL     OW 7072   0.521   3.778   6.815  0.2199 -0.4173  0.0392
 1693SOL    HW1 7073   0.472   3.834   6.755 -0.3954 -1.0066 -0.0047
 1693SOL    HW2 7074   0.507   3.689   6.784 -1.2177 -0.8688  1.8268
 1694SOL     OW 7075   8.262   1.902   4.904 -0.2818 -0.1103  0.2374
 1694SOL    HW1 7076   8.253   1.992   4.935 -1.1523 -0.1649  0.1514
 1694SOL    HW2 7077   8.176   1.879   4.868 -0.3796 -1.3051  1.1544
 1695SOL     OW 7078   8.295   4.589   5.960 -0.0688 -0.0247 -0.0205
 1695SOL    HW1 7079   8.210   4.620   5.929  0.0063  0.8487  0.5867
 1695SOL    HW2 7080   8.275   4.507   6.005 -0.0972 -1.6278 -2.7686
 1696SOL     OW 7081   6.874   2.445   7.501  0.3065  0.1051  0.0788
 1696SOL    HW1 7082   6.789   2.462   7.460 -0.0987 -1.5056  0.1811
 1696SOL    HW2 7083   6.852   2.401   7.583  1.2714 -2.0220 -0.7508
 1697SOL     OW 7084   6.046   3.010   5.384 -0.2711 -0.1732 -0.1306
 1697SOL    HW1 7085   6.020   2.925   5.347  0.5769  0.4931 -2.4244
 1697SOL    HW2 7086   5.967   3.063   5.381 -0.1841 -0.0852 -1.1872
 1698SOL     OW 7087   0.779   2.497   5.299  0.1438  0.0726 -0.1264
 1698SOL    HW1 7088   0.704   2.477   5.356  1.3574 -0.6024  1.2941
 1698SOL    HW2 7089   0.754   2.461   5.214 -0.9910 -0.4913  0.4209
 1699SOL     OW 7090   0.332   7.459   5.990  0.0583 -0.3313  0.2344
 1699SOL    HW1 7091   0.424   7.463   5.965 -0.3672  2.8027 -1.3321
 1699SOL    HW2 7092   0.299   7.548   5.974 -3.7309 -1.8141 -1.1815
 1700SOL     OW 7093   6.968   2.720   3.302 -0.3081 -0.0798  0.3852
 1700SOL    HW1 7094   7.006   2.686   3.382 -0.4460 -0.1616  0.4142
 1700SOL    HW2 7095   6.883   2.678   3.295 -0.5028  0.2999  0.4528
 1701SOL     OW 7096   6.198   4.486   3.752  0.0043 -0.0612  0.1408
 1701SOL    HW1 7097   6.226   4.476   3.843 -1.3401  2.2806  0.9138
 1701SOL    HW2 7098   6.273   4.456   3.701  1.7795  0.8447  2.0341
 1702SOL     OW 7099   2.302   2.490   7.150 -1.1184 -0.1050  0.0452
 1702SOL    HW1 7100   2.338   2.530   7.229  1.2305 -0.1662 -0.9083
 1702SOL    HW2 7101   2.293   2.397   7.171  0.0516 -0.2213  0.0883
 1703SOL     OW 7102   0.728   1.735   0.113 -0.0973 -0.5338 -0.4204
 1703SOL    HW1 7103   0.730   1.681   0.034  3.0479 -0.2000 -0.6725
 1703SOL    HW2 7104   0.639   1.769   0.115 -1.0758 -2.6668 -2.3235
 1704SOL     OW 7105   5.244   0.322   8.545 -0.4619 -0.0491 -0.5469
 1704SOL    HW1 7106   5.157   0.345   8.513 -0.7195  0.3966  0.4415
 1704SOL    HW2 7107   5.303   0.381   8.497 -0.9630  1.5245  0.6874
 1705SOL     OW 7108   7.167   5.941   7.151 -0.4984  0.2134  0.5410
 1705SOL    HW1 7109   7.170   5.881   7.076 -0.1314  1.2820 -0.3154
 1705SOL    HW2 7110   7.239   6.002   7.136 -0.4374  0.4529  1.7656
 1706SOL     OW 7111   8.767   3.631   4.918 -0.4676 -0.1070  0.0461
 1706SOL    HW1 7112   8.751   3.684   4.840 -1.5154 -2.5998 -1.5403
 1706SOL    HW2 7113   8.861   3.617   4.918 -0.4626 -0.1275 -0.8083
 1707SOL     OW 7114   5.650   1.604   0.229 -0.1136  0.1177  0.7701
 1707SOL    HW1 7115   5.686   1.599   0.140 -0.7811 -0.0520  0.5041
 1707SOL    HW2 7116   5.562   1.642   0.217 -1.5615 -2.9220  0.9628
 1708SOL     OW 7117   3.779   1.280   8.440  0.4277  0.2549 -0.4727
 1708SOL    HW1 7118   3.794   1.195   8.481 -0.5315  0.0995 -0.4128
 1708SOL    HW2 7119   3.851   1.334   8.470  0.3874 -0.1918  0.4785
 1709SOL     OW 7120   3.775   0.460   2.101  0.1971 -0.2480  0.0643
 1709SOL    HW1 7121   3.794   0.393   2.167 -3.2511 -0.0763  1.4363
 1709SOL    HW2 7122   3.786   0.543   2.148 -0.8573 -0.0739  0.0182
 1710SOL     OW 7123   5.850   2.735   1.145 -0.2263 -0.6591  0.5784
 1710SOL    HW1 7124   5.808   2.650   1.137  1.1020 -1.4244  1.5101
 1710SOL    HW2 7125   5.777   2.796   1.161 -1.0925 -1.7505  0.9307
 1711SOL     OW 7126   5.645   3.629   6.339 -0.2148  0.5259 -0.2519
 1711SOL    HW1 7127   5.576   3.664   6.395 -0.7155 -0.4879 -0.2186
 1711SOL    HW2 7128   5.713   3.600   6.400 -1.5162 -2.2537  0.0374
 1712SOL     OW 7129   8.604   7.557   8.728 -0.2762  0.1343  0.0770
 1712SOL    HW1 7130   8.666   7.596   8.667  0.7107 -0.5412  0.6328
 1712SOL    HW2 7131   8.531   7.529   8.673 -0.8733  2.3917 -0.3885
 1713SOL     OW 7132   0.743   1.977   4.701  0.5071  0.1907 -0.2190
 1713SOL    HW1 7133   0.656   1.936   4.705  0.4069  0.3746 -0.5126
 1713SOL    HW2 7134   0.766   1.992   4.792  1.1426 -1.7783 -0.0130
 1714SOL     OW 7135   0.363   6.644   3.038 -0.3155  0.4691  0.5997
 1714SOL    HW1 7136   0.296   6.585   3.073 -0.2145  1.1181  1.9457
 1714SOL    HW2 7137   0.314   6.718   3.002 -0.4066 -0.0832 -0.4585
 1715SOL     OW 7138   4.179   7.396   5.879 -0.4001 -0.1896 -0.1697
 1715SOL    HW1 7139   4.199   7.322   5.822  0.6034 -0.6563  0.7619
 1715SOL    HW2 7140   4.254   7.454   5.870  0.2929 -0.7887  1.4862
 1716SOL     OW 7141   0.820   1.020   1.316  0.1599  0.4332  0.3719
 1716SOL    HW1 7142   0.809   0.965   1.393 -1.7851 -0.1444 -0.2660
 1716SOL    HW2 7143   0.781   1.104   1.340 -0.0963  0.3801  0.1444
 1717SOL     OW 7144   4.015   8.762   2.720 -0.6358  0.0957 -0.1466
 1717SOL    HW1 7145   4.018   8.785   2.627  1.8035 -2.3655 -0.8061
 1717SOL    HW2 7146   4.101   8.788   2.754 -1.2553  0.3528  1.2972
 1718SOL     OW 7147   4.567   1.823   8.617  0.2328  0.0187  0.0298
 1718SOL    HW1 7148   4.625   1.881   8.568  0.6189  1.3265  1.9148
 1718SOL    HW2 7149   4.608   1.736   8.610  0.2045  0.1248 -1.9644
 1719SOL     OW 7150   0.998   3.429   4.804  0.2475  0.3461  0.6354
 1719SOL    HW1 7151   1.057   3.368   4.848  0.4428  1.4017  1.9228
 1719SOL    HW2 7152   0.974   3.492   4.872 -0.2770  1.4544 -0.5240
 1720SOL     OW 7153   8.265   5.380   4.608 -0.3645  0.4485  0.2127
 1720SOL    HW1 7154   8.324   5.359   4.681 -0.8100  0.8587  0.7013
 1720SOL    HW2 7155   8.307   5.341   4.531 -0.3305 -0.7887  0.8209
 1721SOL     OW 7156   7.244   8.371   4.015 -0.0429 -0.3306  0.1261
 1721SOL    HW1 7157   7.317   8.395   4.072 -1.3877  1.5379  1.1824
 1721SOL    HW2 7158   7.248   8.435   3.944 -0.7343 -0.1109  0.2820
 1722SOL     OW 7159   2.334   5.419   6.292  0.5943  0.0664 -0.5188
 1722SOL    HW1 7160   2.322   5.342   6.348 -1.8956  1.9391  1.7510
 1722SOL    HW2 7161   2.305   5.390   6.206 -2.0328 -1.1492  0.6489
 1723SOL     OW 7162   2.440   6.068   8.351  0.0110  0.1087  0.2653
 1723SOL    HW1 7163   2.378   5.996   8.351  0.5391 -0.3788  1.8770
 1723SOL    HW2 7164   2.511   6.039   8.294  0.2653 -0.6983  0.9769
 1724SOL     OW 7165   6.254   0.082   0.398 -0.8210  0.0836 -0.9762
 1724SOL    HW1 7166   6.273   0.032   0.478  1.2442  2.1262 -0.0807
 1724SOL    HW2 7167   6.211   0.162   0.429 -3.0588 -0.5063 -2.2888
 1725SOL     OW 7168   7.200   0.652   2.326 -0.1428 -0.3802 -0.0212
 1725SOL    HW1 7169   7.275   0.698   2.288  0.8826 -1.0276  1.1740
 1725SOL    HW2 7170   7.141   0.722   2.353 -1.6482  0.1577 -4.0018
 1726SOL     OW 7171   6.844   0.408   4.552 -0.2319 -0.1581 -0.1004
 1726SOL    HW1 7172   6.841   0.503   4.565  1.2311  0.1020 -1.3876
 1726SOL    HW2 7173   6.848   0.372   4.641 -0.8378  0.9653  0.4096
 1727SOL     OW 7174   8.580   7.976   2.075 -0.0779  0.5279 -0.6833
 1727SOL    HW1 7175   8.601   7.972   2.169  1.1491 -0.6853 -0.9700
 1727SOL    HW2 7176   8.587   8.069   2.053  0.2088  0.7557  0.3170
 1728SOL     OW 7177   1.923   3.613   0.901 -0.0952  0.3436  0.0793
 1728SOL    HW1 7178   1.945   3.544   0.839 -1.1900  0.0462  0.0057
 1728SOL    HW2 7179   1.995   3.675   0.894 -0.3207  0.4524 -1.7081
 1729SOL     OW 7180   4.096   0.785   8.843 -0.0171 -0.0956  0.4638
 1729SOL    HW1 7181   4.165   0.788   8.909  1.0004 -0.4930 -0.5541
 1729SOL    HW2 7182   4.085   0.692   8.824 -0.3722  0.0080  0.1375
 1730SOL     OW 7183   0.477   1.630   0.690 -0.2822 -0.0879 -0.0597
 1730SOL    HW1 7184   0.563   1.591   0.706 -0.9221 -0.2221  4.4169
 1730SOL    HW2 7185   0.496   1.717   0.654  1.9576  0.7288  2.6930
 1731SOL     OW 7186   7.583   2.522   3.460  0.4908 -0.1132  0.3780
 1731SOL    HW1 7187   7.535   2.474   3.392  1.4247  0.3221 -0.6277
 1731SOL    HW2 7188   7.564   2.614   3.441 -0.0675 -0.0206  1.3547
 1732SOL     OW 7189   0.677   5.626   5.183  0.1163 -0.5283  0.4642
 1732SOL    HW1 7190   0.770   5.636   5.165 -0.1325 -0.8854 -1.2201
 1732SOL    HW2 7191   0.635   5.694   5.130 -0.6432 -1.1272  0.2719
 1733SOL     OW 7192   1.450   2.324   8.481 -0.3117 -0.4256 -0.3100
 1733SOL    HW1 7193   1.538   2.287   8.485  0.2889  0.9343 -0.1916
 1733SOL    HW2 7194   1.401   2.276   8.548  0.9775  0.3206  1.2670
 1734SOL     OW 7195   8.285   6.954   5.716 -0.6872 -0.5082  0.4322
 1734SOL    HW1 7196   8.273   6.891   5.645  1.0366  1.0576 -1.3700
 1734SOL    HW2 7197   8.338   6.907   5.781  0.0927 -1.1226 -0.6165
 1735SOL     OW 7198   6.203   8.761   3.697 -0.4488 -0.5429 -0.3755
 1735SOL    HW1 7199   6.151   8.837   3.669  0.9477  0.0565 -1.4489
 1735SOL    HW2 7200   6.137   8.695   3.721 -1.7007  0.2957 -1.3593
 1736SOL     OW 7201   8.183   7.289   7.902  0.1187  0.4159  0.0631
 1736SOL    HW1 7202   8.202   7.321   7.990 -0.0341  0.7705 -0.0327
 1736SOL    HW2 7203   8.266   7.293   7.856  0.7424 -1.8679  0.8256
 1737SOL     OW 7204   6.452   6.258   6.721 -0.0775  0.1217 -0.2400
 1737SOL    HW1 7205   6.371   6.264   6.671 -0.3072  1.9744  0.3021
 1737SOL    HW2 7206   6.430   6.291   6.808  1.1308  0.1203  0.0861
 1738SOL     OW 7207   7.966   4.545   6.613 -0.6159  0.3228  0.7481
 1738SOL    HW1 7208   7.990   4.502   6.531 -0.0403  0.9792  0.5643
 1738SOL    HW2 7209   7.978   4.638   6.596 -2.4957  0.6334  0.9276
 1739SOL     OW 7210   4.715   5.769   8.695  0.0069  0.1825 -0.4694
 1739SOL    HW1 7211   4.800   5.740   8.728 -0.4344 -0.0035  0.5133
 1739SOL    HW2 7212   4.701   5.715   8.617  0.1048 -0.8680  0.2209
 1740SOL     OW 7213   7.320   2.261   3.362 -0.2987  0.0327 -0.1404
 1740SOL    HW1 7214   7.250   2.208   3.324 -0.2030  0.6543 -1.2413
 1740SOL    HW2 7215   7.368   2.295   3.286  0.0355  1.1668  0.5511
 1741SOL     OW 7216   6.205   5.014   3.794  0.2539 -0.2678  0.1178
 1741SOL    HW1 7217   6.262   4.939   3.813  0.0932 -0.2218  0.7692
 1741SOL    HW2 7218   6.266   5.084   3.769  0.5123 -0.1066  1.1747
 1742SOL     OW 7219   0.498   4.035   1.847  0.4095  0.3513  0.4606
 1742SOL    HW1 7220   0.487   4.071   1.759  0.5917 -1.3450 -0.3099
 1742SOL    HW2 7221   0.427   4.073   1.898  0.5229  1.6433 -0.3218
 1743SOL     OW 7222   3.096   7.853   7.188  0.0037  0.0677  0.1657
 1743SOL    HW1 7223   3.138   7.786   7.134  1.1418  0.8136  0.1021
 1743SOL    HW2 7224   3.044   7.904   7.126 -1.0901 -0.8912  0.2532
 1744SOL     OW 7225   7.205   8.861   0.328  0.1771 -0.1436 -0.3181
 1744SOL    HW1 7226   7.287   8.867   0.375  0.1416  0.4676 -0.3304
 1744SOL    HW2 7227   7.154   8.937   0.357  0.3105  0.4693 -1.6198
 1745SOL     OW 7228   8.159   8.423   4.486 -0.2474  0.1920  0.0929
 1745SOL    HW1 7229   8.206   8.506   4.497  0.7028 -0.3846  0.5263
 1745SOL    HW2 7230   8.075   8.448   4.448 -0.2202  1.4093  0.7821
 1746SOL     OW 7231   3.598   0.764   8.599  0.3106 -0.3659 -0.4709
 1746SOL    HW1 7232   3.567   0.691   8.652 -0.2036 -0.2587 -0.6226
 1746SOL    HW2 7233   3.691   0.772   8.622 -0.0772  0.2156  1.0608
 1747SOL     OW 7234   1.964   4.392   7.807 -0.1342 -0.2114  0.1156
 1747SOL    HW1 7235   1.915   4.415   7.728  1.5575  2.2678 -0.3401
 1747SOL    HW2 7236   2.037   4.339   7.776 -0.4480 -0.7472  0.2807
 1748SOL     OW 7237   6.674   1.027   1.442  0.5194 -0.1719 -0.6334
 1748SOL    HW1 7238   6.743   1.059   1.384  0.0143  2.4969  0.0805
 1748SOL    HW2 7239   6.705   1.050   1.530 -0.7752  0.1019 -0.2292
 1749SOL     OW 7240   2.984   0.194   1.327  0.7633  0.2360 -0.3296
 1749SOL    HW1 7241   2.904   0.245   1.314 -0.5853 -1.3508  1.2020
 1749SOL    HW2 7242   3.026   0.193   1.241 -0.1808  2.1748 -0.8812
 1750SOL     OW 7243   3.740   0.257   7.609 -0.2420  0.8546  0.0877
 1750SOL    HW1 7244   3.650   0.253   7.577 -0.0074  0.9999 -0.6195
 1750SOL    HW2 7245   3.744   0.190   7.677 -1.1901  1.6376  0.9313
 1751SOL     OW 7246   1.853   4.086   1.632 -0.0109  0.0996  0.1452
 1751SOL    HW1 7247   1.882   4.076   1.723 -0.3937 -1.8568  0.0918
 1751SOL    HW2 7248   1.785   4.153   1.636  1.4401  1.5821  0.9386
 1752SOL     OW 7249   3.738   2.038   0.485  0.4644  0.7422 -0.3249
 1752SOL    HW1 7250   3.727   2.015   0.392  0.6989  0.6360 -0.3288
 1752SOL    HW2 7251   3.698   1.966   0.533 -1.6907  1.8590 -0.3386
 1753SOL     OW 7252   0.228   5.280   4.189  0.4114  0.3106 -0.1852
 1753SOL    HW1 7253   0.243   5.294   4.096 -1.3217 -0.1563 -0.5614
 1753SOL    HW2 7254   0.205   5.188   4.196  1.8780 -0.0150  0.9229
 1754SOL     OW 7255   7.125   3.701   5.603 -0.1300 -0.2407  0.4666
 1754SOL    HW1 7256   7.085   3.617   5.580  0.2231 -0.7263  1.5384
 1754SOL    HW2 7257   7.091   3.763   5.539 -0.8609 -1.0888  0.0211
 1755SOL     OW 7258   5.586   1.802   2.223 -0.2532 -0.0948 -0.4005
 1755SOL    HW1 7259   5.512   1.773   2.169 -1.6452  0.9332  0.8486
 1755SOL    HW2 7260   5.620   1.721   2.262 -0.9142 -0.5563 -0.7603
 1756SOL     OW 7261   5.692   3.987   1.999  0.5287 -0.7478 -0.2719
 1756SOL    HW1 7262   5.763   4.043   1.969  1.1629 -2.1488 -1.5027
 1756SOL    HW2 7263   5.666   3.937   1.921 -0.7111 -1.4239  0.5373
 1757SOL     OW 7264   0.883   0.579   8.024  0.0023  0.2420 -0.5755
 1757SOL    HW1 7265   0.823   0.654   8.030 -1.4692 -0.9295  0.3073
 1757SOL    HW2 7266   0.945   0.593   8.096  0.5946  1.2844 -1.2650
 1758SOL     OW 7267   2.568   4.634   3.582 -0.3877  0.1533  0.0360
 1758SOL    HW1 7268   2.650   4.605   3.542 -1.2562 -2.2950 -0.1449
 1758SOL    HW2 7269   2.500   4.609   3.520 -1.3330  1.9907  0.2503
 1759SOL     OW 7270   1.464   2.951   6.320  0.9952 -0.7368  0.0184
 1759SOL    HW1 7271   1.545   2.928   6.366  1.4436 -0.5785 -0.6724
 1759SOL    HW2 7272   1.465   2.896   6.242  0.5614 -0.5389 -0.1285
 1760SOL     OW 7273   7.658   4.814   6.252 -0.2815 -0.2166 -0.0539
 1760SOL    HW1 7274   7.603   4.778   6.322  3.6073 -1.4008  2.7626
 1760SOL    HW2 7275   7.708   4.739   6.220  1.0179  1.0347 -1.1053
 1761SOL     OW 7276   7.654   4.028   7.100 -0.3860  0.0141  0.0189
 1761SOL    HW1 7277   7.677   4.121   7.098 -0.8213  0.2668  2.7634
 1761SOL    HW2 7278   7.713   3.988   7.037 -1.1732  2.2923 -2.3617
 1762SOL     OW 7279   8.055   7.525   0.246  0.0949  0.2537 -0.4628
 1762SOL    HW1 7280   8.049   7.435   0.278 -1.6460  0.4553 -0.1057
 1762SOL    HW2 7281   8.041   7.579   0.323 -0.6668  0.7911 -0.9575
 1763SOL     OW 7282   8.336   2.866   0.033 -0.1245  0.2913 -0.7526
 1763SOL    HW1 7283   8.246   2.866   0.003 -0.4520 -0.2832  0.2002
 1763SOL    HW2 7284   8.339   2.802   0.104  1.3704 -0.8472 -1.7717
 1764SOL     OW 7285   6.961   1.324   8.498  0.1569  0.0352 -0.2559
 1764SOL    HW1 7286   6.974   1.303   8.591 -0.3132 -2.7640 -0.7335
 1764SOL    HW2 7287   7.050   1.331   8.463  0.3443  0.1064  0.2187
 1765SOL     OW 7288   3.270   5.515   3.571 -0.1274  1.2130  0.4321
 1765SOL    HW1 7289   3.318   5.524   3.488 -1.0421  1.2787 -0.1080
 1765SOL    HW2 7290   3.305   5.585   3.626  0.3832  1.2732  0.0450
 1766SOL     OW 7291   0.505   8.786   8.460 -0.7018 -0.3492 -0.1052
 1766SOL    HW1 7292   0.537   8.723   8.523  0.0400 -0.6162 -0.7234
 1766SOL    HW2 7293   0.410   8.784   8.468 -0.6043  0.6992  2.0188
 1767SOL     OW 7294   4.783   8.641   3.831 -0.5077 -0.4255 -0.2287
 1767SOL    HW1 7295   4.758   8.583   3.760 -0.2651 -1.4172  0.4728
 1767SOL    HW2 7296   4.875   8.663   3.813 -0.3396 -0.9541 -0.0527
 1768SOL     OW 7297   6.399   2.173   4.279  0.2127  0.2438 -0.4887
 1768SOL    HW1 7298   6.317   2.142   4.242 -0.3157 -1.9129  2.1452
 1768SOL    HW2 7299   6.375   2.216   4.361  1.6203  0.6909 -0.2680
 1769SOL     OW 7300   3.161   6.907   0.539  0.4045 -0.2776 -0.5161
 1769SOL    HW1 7301   3.140   6.819   0.571  0.4945 -0.6042 -1.3541
 1769SOL    HW2 7302   3.254   6.917   0.559  0.7118 -0.8800 -1.5692
 1770SOL     OW 7303   5.125   0.502   7.114 -0.7963  0.1906  0.0696
 1770SOL    HW1 7304   5.097   0.572   7.055 -0.8003  0.0784 -0.0625
 1770SOL    HW2 7305   5.141   0.546   7.198 -0.8601  0.3390  0.0041
 1771SOL     OW 7306   3.429   2.873   5.188 -0.1335 -0.6700  0.1043
 1771SOL    HW1 7307   3.510   2.909   5.150 -1.7528  0.3668 -2.7465
 1771SOL    HW2 7308   3.445   2.779   5.195  1.6915 -0.3569  0.7654
 1772SOL     OW 7309   8.799   5.041   6.004  0.2447  0.1318 -0.0195
 1772SOL    HW1 7310   8.843   5.035   6.089  0.3656 -0.8477 -0.1397
 1772SOL    HW2 7311   8.710   5.010   6.020  0.1821  0.2197 -0.1914
 1773SOL     OW 7312   8.784   7.137   2.325  0.0059  0.1859 -0.0642
 1773SOL    HW1 7313   8.771   7.050   2.286  1.7438  1.1614 -3.1425
 1773SOL    HW2 7314   8.852   7.123   2.392 -1.6263 -1.2045  1.4029
 1774SOL     OW 7315   5.608   3.506   2.762  0.0377  0.0593  0.5176
 1774SOL    HW1 7316   5.681   3.445   2.772 -0.2568 -0.3862 -0.0139
 1774SOL    HW2 7317   5.612   3.534   2.671 -0.9811 -0.6521  0.2472
 1775SOL     OW 7318   3.231   8.036   2.541 -0.8001  0.1839 -0.3750
 1775SOL    HW1 7319   3.310   8.036   2.595  0.6572 -0.0684 -2.3940
 1775SOL    HW2 7320   3.165   8.076   2.596  0.9503  1.2267  1.0863
 1776SOL     OW 7321   8.040   6.253   6.701 -0.1500  0.2416  0.0754
 1776SOL    HW1 7322   7.948   6.261   6.678 -0.5833  0.1023  1.6273
 1776SOL    HW2 7323   8.079   6.336   6.676 -1.2541  1.3090  1.7127
 1777SOL     OW 7324   5.340   2.326   0.709 -0.0876  0.1064  0.3423
 1777SOL    HW1 7325   5.385   2.299   0.789  0.3149  2.2806  0.9156
 1777SOL    HW2 7326   5.399   2.299   0.638 -0.1561 -1.2899  0.8022
 1778SOL     OW 7327   7.407   2.387   6.178 -0.7805 -0.1823  0.2172
 1778SOL    HW1 7328   7.442   2.430   6.101 -0.0175 -0.1432  0.5728
 1778SOL    HW2 7329   7.312   2.389   6.167 -0.8564  2.6069  0.7600
 1779SOL     OW 7330   7.147   3.902   8.334  0.2353 -0.1249 -0.5467
 1779SOL    HW1 7331   7.203   3.978   8.347 -0.2035  0.1661 -0.3464
 1779SOL    HW2 7332   7.163   3.876   8.243 -0.0112  0.5329 -0.7854
 1780SOL     OW 7333   2.110   4.635   4.780  0.7060 -0.1242 -1.0760
 1780SOL    HW1 7334   2.176   4.679   4.726  0.8459  0.2730 -0.5897
 1780SOL    HW2 7335   2.032   4.632   4.725  0.4812  1.3754 -0.8640
 1781SOL     OW 7336   1.133   6.120   2.724  0.1799 -0.5136  0.0664
 1781SOL    HW1 7337   1.224   6.113   2.695  0.4024 -0.1812  0.6564
 1781SOL    HW2 7338   1.139   6.125   2.820 -0.2933  1.5697  0.0428
 1782SOL     OW 7339   6.304   3.491   6.671 -0.0261 -0.2684 -0.1431
 1782SOL    HW1 7340   6.235   3.426   6.652 -0.9882  0.6265  0.1786
 1782SOL    HW2 7341   6.295   3.556   6.602  1.3934 -0.8061 -0.8615
 1783SOL     OW 7342   8.342   8.469   8.746  0.4492 -0.0589 -0.3116
 1783SOL    HW1 7343   8.426   8.425   8.754  1.3357  1.3118 -1.5726
 1783SOL    HW2 7344   8.284   8.421   8.805  3.0669  1.4110  3.8708
 1784SOL     OW 7345   7.159   2.654   1.943 -0.1929 -0.4797  0.0503
 1784SOL    HW1 7346   7.117   2.736   1.918 -1.1781 -0.9972 -0.0401
 1784SOL    HW2 7347   7.237   2.649   1.889 -0.1101  0.4124  0.0821
 1785SOL     OW 7348   3.423   3.123   0.490 -0.5119 -0.0787  0.8059
 1785SOL    HW1 7349   3.438   3.077   0.573  2.3596 -3.3534 -1.2701
 1785SOL    HW2 7350   3.372   3.062   0.437 -1.4000  1.5144 -0.2380
 1786SOL     OW 7351   1.383   4.110   7.247  0.1001  0.0702  0.1474
 1786SOL    HW1 7352   1.371   4.150   7.161 -3.0482 -1.0266 -0.0479
 1786SOL    HW2 7353   1.418   4.180   7.302 -0.6886  1.6616 -1.3059
 1787SOL     OW 7354   6.818   5.578   3.005 -0.3420 -0.0557 -0.6353
 1787SOL    HW1 7355   6.759   5.612   2.938  0.7182  2.7432 -0.2806
 1787SOL    HW2 7356   6.793   5.625   3.085 -1.9683 -3.7158  1.2466
 1788SOL     OW 7357   8.237   2.133   2.382  0.3070 -0.2267 -0.9484
 1788SOL    HW1 7358   8.224   2.219   2.342  1.1010  0.8985  1.0327
 1788SOL    HW2 7359   8.279   2.153   2.466  0.1354 -2.5378 -0.2618
 1789SOL     OW 7360   1.589   0.329   7.599  0.2546 -0.2886 -0.2110
 1789SOL    HW1 7361   1.590   0.422   7.574 -0.7524 -0.2043  0.0232
 1789SOL    HW2 7362   1.661   0.321   7.662 -0.9145  0.8112  1.3483
 1790SOL     OW 7363   0.096   5.035   6.703 -0.0237  0.9883  0.2136
 1790SOL    HW1 7364   0.072   4.943   6.716  1.5637  0.8729  3.1523
 1790SOL    HW2 7365   0.029   5.084   6.751 -0.1263  1.2905 -0.2336
 1791SOL     OW 7366   3.967   1.066   2.634  0.2436  0.1331  0.6935
 1791SOL    HW1 7367   3.883   1.020   2.639  0.9994 -1.5396 -0.8605
 1791SOL    HW2 7368   4.001   1.065   2.723 -0.3115 -1.3242  0.9162
 1792SOL     OW 7369   5.036   7.668   5.064  0.3881 -0.2237  0.6333
 1792SOL    HW1 7370   4.961   7.686   5.006  0.4957  0.2750  0.6440
 1792SOL    HW2 7371   5.064   7.754   5.094  0.5808 -0.4545  1.1220
 1793SOL     OW 7372   2.878   7.840   2.005  0.5348 -0.2478 -0.0737
 1793SOL    HW1 7373   2.941   7.890   1.953 -0.5859  0.6907 -0.5546
 1793SOL    HW2 7374   2.835   7.904   2.061 -1.0515 -0.6070 -0.8265
 1794SOL     OW 7375   2.545   3.171   1.733  0.0356  0.1934 -0.6840
 1794SOL    HW1 7376   2.491   3.164   1.654  0.9072  1.2588 -1.3993
 1794SOL    HW2 7377   2.618   3.112   1.718  1.2413  1.8453 -1.5783
 1795SOL     OW 7378   1.034   5.719   2.380 -0.0656 -0.1276  0.5107
 1795SOL    HW1 7379   1.030   5.810   2.348  0.0004 -0.2166  0.2455
 1795SOL    HW2 7380   1.076   5.671   2.309 -1.8604 -0.7388 -0.1939
 1796SOL     OW 7381   3.281   8.027   6.621  0.5167 -0.0753 -0.1649
 1796SOL    HW1 7382   3.370   8.063   6.615  0.4618  0.2923  0.9156
 1796SOL    HW2 7383   3.249   8.058   6.706 -0.8621  0.2643 -0.7882
 1797SOL     OW 7384   4.335   6.263   7.027 -0.8118 -0.2604  0.0691
 1797SOL    HW1 7385   4.309   6.178   6.990 -2.3784  0.3749 -0.3310
 1797SOL    HW2 7386   4.370   6.311   6.952 -1.1952 -0.0641  0.0138
 1798SOL     OW 7387   4.909   0.164   8.491 -0.6558  0.0035  0.0878
 1798SOL    HW1 7388   4.857   0.165   8.410 -1.0950 -2.2053  0.2719
 1798SOL    HW2 7389   4.848   0.194   8.559 -1.3670 -1.3771  0.0968
 1799SOL     OW 7390   2.823   5.819   1.298  0.3482 -0.0283  0.1917
 1799SOL    HW1 7391   2.885   5.798   1.229  0.1291 -0.7520  0.2091
 1799SOL    HW2 7392   2.744   5.847   1.252  0.4397  0.1838  0.1619
 1800SOL     OW 7393   2.623   5.299   7.381 -0.4096  0.1543  0.0882
 1800SOL    HW1 7394   2.623   5.209   7.414  0.0693  0.1225  0.0172
 1800SOL    HW2 7395   2.715   5.316   7.358 -0.7015  0.2267 -1.0896
 1801SOL     OW 7396   1.343   2.180   1.661  0.1475 -0.1627 -0.8171
 1801SOL    HW1 7397   1.411   2.215   1.718 -0.2710  1.0981 -1.0588
 1801SOL    HW2 7398   1.273   2.153   1.720  0.0538  0.3651 -0.6881
 1802SOL     OW 7399   5.982   3.187   8.685 -0.5646  0.3115 -0.6066
 1802SOL    HW1 7400   6.011   3.104   8.647 -1.3343  0.1411 -0.8403
 1802SOL    HW2 7401   5.957   3.240   8.609  1.8009  1.5303 -0.6314
 1803SOL     OW 7402   5.445   5.601   2.126 -0.1365 -0.5119 -0.2465
 1803SOL    HW1 7403   5.378   5.663   2.153 -0.3163  0.1034 -1.9946
 1803SOL    HW2 7404   5.461   5.620   2.034  2.0131 -1.0357 -0.0533
 1804SOL     OW 7405   6.056   8.182   5.305  0.3584  0.2875  0.0920
 1804SOL    HW1 7406   6.062   8.127   5.227  0.0992 -0.1804  0.4063
 1804SOL    HW2 7407   6.127   8.246   5.293 -0.1411  0.6819 -0.8855
 1805SOL     OW 7408   1.441   4.777   1.395  0.0499 -0.4172 -0.1123
 1805SOL    HW1 7409   1.465   4.692   1.357 -0.7271 -1.1173  0.9029
 1805SOL    HW2 7410   1.372   4.810   1.337  0.3757 -0.4606 -0.5279
 1806SOL     OW 7411   2.775   0.169   0.199 -0.2929 -0.3530 -0.5160
 1806SOL    HW1 7412   2.862   0.157   0.236 -0.3491  2.1169  0.5800
 1806SOL    HW2 7413   2.729   0.088   0.220  0.6240 -0.2577  2.2354
 1807SOL     OW 7414   6.158   2.954   6.234  0.2214  0.5709  0.5531
 1807SOL    HW1 7415   6.108   3.031   6.208  1.4577  0.6608 -1.7827
 1807SOL    HW2 7416   6.203   2.980   6.314 -1.1305  1.4594  1.0657
 1808SOL     OW 7417   4.745   6.078   5.903  0.2892 -0.1040 -0.2751
 1808SOL    HW1 7418   4.834   6.069   5.868  0.3294 -0.3421 -0.1089
 1808SOL    HW2 7419   4.754   6.143   5.972  0.6742 -1.3978  0.9311
 1809SOL     OW 7420   2.090   7.499   2.389  0.0671  0.0370 -0.4475
 1809SOL    HW1 7421   2.044   7.515   2.471  0.8378 -2.6386  0.6035
 1809SOL    HW2 7422   2.022   7.470   2.328 -0.0709 -1.1560  0.2513
 1810SOL     OW 7423   5.272   3.529   5.651 -0.4156  0.2991 -0.4253
 1810SOL    HW1 7424   5.184   3.502   5.676 -0.4972  0.4426 -0.5553
 1810SOL    HW2 7425   5.320   3.447   5.640 -0.2088  0.2433  0.7795
 1811SOL     OW 7426   1.760   3.565   3.539  0.6419  0.1127 -0.3648
 1811SOL    HW1 7427   1.845   3.536   3.508  1.3687  0.5018  1.1748
 1811SOL    HW2 7428   1.745   3.516   3.620 -0.2877  0.5460 -0.2543
 1812SOL     OW 7429   5.455   3.611   3.835  0.2691  0.2766 -0.3516
 1812SOL    HW1 7430   5.504   3.532   3.812 -0.7725 -0.3009 -0.6315
 1812SOL    HW2 7431   5.367   3.597   3.800  0.5044  2.3031 -1.9732
 1813SOL     OW 7432   6.488   3.135   8.220 -0.6847 -0.1759  0.6264
 1813SOL    HW1 7433   6.410   3.132   8.164 -1.6955  0.2113  1.9687
 1813SOL    HW2 7434   6.512   3.043   8.233  0.0982 -0.2644 -1.1022
 1814SOL     OW 7435   8.786   6.828   4.878 -0.1229  0.4011  0.1141
 1814SOL    HW1 7436   8.705   6.866   4.844 -1.2642 -1.8172  0.1759
 1814SOL    HW2 7437   8.813   6.765   4.811  0.7241  0.0424  0.7753
 1815SOL     OW 7438   7.337   6.951   0.189 -0.1616  0.2114  0.4259
 1815SOL    HW1 7439   7.264   6.970   0.131  0.5957  1.8990 -0.0326
 1815SOL    HW2 7440   7.410   7.003   0.155  1.2343 -1.2578  0.9706
 1816SOL     OW 7441   1.314   5.466   4.306  0.6714 -0.0292 -0.2381
 1816SOL    HW1 7442   1.265   5.386   4.286  0.1729  0.4396 -0.9234
 1816SOL    HW2 7443   1.351   5.493   4.222  1.5563 -0.0113  0.1501
 1817SOL     OW 7444   7.834   2.485   1.925  0.6033  0.1449  0.2078
 1817SOL    HW1 7445   7.879   2.401   1.921  0.2738 -0.2302  2.5324
 1817SOL    HW2 7446   7.891   2.540   1.979 -1.2442 -0.0998  2.5635
 1818SOL     OW 7447   2.685   2.379   8.180  0.0315  0.1235  0.0973
 1818SOL    HW1 7448   2.704   2.360   8.272 -0.7699 -1.4686 -0.0210
 1818SOL    HW2 7449   2.595   2.411   8.181 -0.0941 -0.2198 -0.1604
 1819SOL     OW 7450   1.282   8.536   1.338 -0.4056 -0.5985  0.0426
 1819SOL    HW1 7451   1.316   8.446   1.339 -0.1029 -0.4843  0.7844
 1819SOL    HW2 7452   1.194   8.528   1.301  0.6682 -0.7985 -2.7619
 1820SOL     OW 7453   3.326   7.729   8.188 -0.1432  0.1961 -0.1877
 1820SOL    HW1 7454   3.357   7.744   8.099 -0.8867  0.4277 -0.4145
 1820SOL    HW2 7455   3.230   7.728   8.180 -0.2250  0.6463  0.6759
 1821SOL     OW 7456   3.852   0.777   8.723 -0.2477 -0.0174  0.4826
 1821SOL    HW1 7457   3.830   0.693   8.764  0.9019 -0.4274  0.2938
 1821SOL    HW2 7458   3.928   0.808   8.772 -0.8714  1.0989  0.7753
 1822SOL     OW 7459   3.279   8.538   0.980 -0.1711 -0.2884 -0.5493
 1822SOL    HW1 7460   3.372   8.526   0.999 -0.4505 -1.8755  0.0157
 1822SOL    HW2 7461   3.266   8.493   0.897 -0.4347 -0.0531 -0.6373
 1823SOL     OW 7462   2.037   0.295   1.156 -0.0220 -0.1528 -0.3851
 1823SOL    HW1 7463   2.080   0.276   1.073 -0.4356 -1.1897 -0.3785
 1823SOL    HW2 7464   1.976   0.222   1.168 -0.7505  0.5520  0.2947
 1824SOL     OW 7465   8.465   3.151   6.630 -0.0528  0.0111  0.0647
 1824SOL    HW1 7466   8.431   3.063   6.646  0.1509  0.1074  1.0947
 1824SOL    HW2 7467   8.388   3.205   6.615 -0.2496 -0.1268  0.5772
 1825SOL     OW 7468   3.485   6.121   2.460  0.4742 -0.9663 -0.1519
 1825SOL    HW1 7469   3.536   6.198   2.486 -0.9236 -0.8906  2.7287
 1825SOL    HW2 7470   3.549   6.050   2.459  1.6329 -0.0125 -2.1092
 1826SOL     OW 7471   4.023   3.992   6.896  0.2740  0.1372 -0.6164
 1826SOL    HW1 7472   3.976   3.968   6.816  0.3025 -0.3561 -0.4918
 1826SOL    HW2 7473   3.958   4.039   6.948  0.5955  1.5284 -1.4220
 1827SOL     OW 7474   5.226   7.034   4.547  0.0166  0.4550  0.2622
 1827SOL    HW1 7475   5.249   6.945   4.573 -0.0918  0.0092 -1.1113
 1827SOL    HW2 7476   5.276   7.090   4.607 -1.0168 -0.4906  2.0924
 1828SOL     OW 7477   6.832   3.139   2.563 -0.2195  0.1879 -0.4464
 1828SOL    HW1 7478   6.740   3.138   2.587  0.0323 -0.3575  0.5313
 1828SOL    HW2 7479   6.843   3.061   2.508 -0.2895  0.1281 -0.3751
 1829SOL     OW 7480   7.895   1.251   8.599 -0.3176  0.0398 -0.3048
 1829SOL    HW1 7481   7.837   1.294   8.662 -0.3913 -1.6161  0.8077
 1829SOL    HW2 7482   7.837   1.198   8.545 -0.0079 -0.3616 -0.2453
 1830SOL     OW 7483   4.049   2.060   7.350 -0.0826  0.2589  0.4826
 1830SOL    HW1 7484   3.966   2.059   7.397 -1.0413  1.6510 -1.0896
 1830SOL    HW2 7485   4.102   2.125   7.396  0.0952 -0.5068  1.3829
 1831SOL     OW 7486   6.674   2.807   4.333 -0.0533 -0.1713 -0.6613
 1831SOL    HW1 7487   6.741   2.875   4.340  1.6284 -1.7034 -1.1507
 1831SOL    HW2 7488   6.648   2.807   4.241 -1.1236  0.7397 -0.3818
 1832SOL     OW 7489   5.516   6.878   1.143 -0.2608  0.2998 -0.1252
 1832SOL    HW1 7490   5.424   6.899   1.130 -0.6453 -0.1257  1.6255
 1832SOL    HW2 7491   5.518   6.784   1.157  0.1018  0.5853  2.0951
 1833SOL     OW 7492   3.802   1.861   6.069  0.5963 -0.3890 -0.5286
 1833SOL    HW1 7493   3.793   1.933   6.132  0.6925  0.0013 -0.9541
 1833SOL    HW2 7494   3.859   1.798   6.113  1.2124  0.1863 -0.4707
 1834SOL     OW 7495   2.459   6.007   2.791 -0.3574 -0.0574  0.2858
 1834SOL    HW1 7496   2.388   6.053   2.837 -0.3436 -0.9773  1.2521
 1834SOL    HW2 7497   2.505   6.077   2.744 -0.5523  0.8825  1.4328
 1835SOL     OW 7498   4.594   1.849   7.061  0.3215 -0.1944 -0.2390
 1835SOL    HW1 7499   4.532   1.908   7.018  0.5323 -0.2363 -0.6070
 1835SOL    HW2 7500   4.674   1.856   7.009  1.1411  1.0147  1.0967
 1836SOL     OW 7501   3.216   0.906   4.464  0.3039  0.2457 -0.1569
 1836SOL    HW1 7502   3.133   0.905   4.415  0.8201 -1.1051 -1.0468
 1836SOL    HW2 7503   3.269   0.838   4.423  2.1826  1.6001 -0.1254
 1837SOL     OW 7504   4.759   7.390   7.622 -0.0983 -0.0847 -0.0662
 1837SOL    HW1 7505   4.812   7.355   7.550  2.2476  0.7289  1.1440
 1837SOL    HW2 7506   4.766   7.325   7.691  2.9234  1.7694  1.5967
 1838SOL     OW 7507   4.654   2.833   4.128  0.4923  0.1485 -0.4936
 1838SOL    HW1 7508   4.577   2.782   4.104  0.7148  0.1368 -1.1991
 1838SOL    HW2 7509   4.720   2.768   4.151 -0.4226  0.1444  2.5991
 1839SOL     OW 7510   6.657   0.361   2.057 -0.4959  0.6073  1.2907
 1839SOL    HW1 7511   6.575   0.334   2.097 -0.7203 -0.7941  0.0024
 1839SOL    HW2 7512   6.699   0.279   2.032  1.2514  1.3057  1.8056
 1840SOL     OW 7513   1.427   8.126   6.531  0.2711  0.4463 -0.2945
 1840SOL    HW1 7514   1.431   8.075   6.450  0.8991 -0.1317  0.0883
 1840SOL    HW2 7515   1.463   8.068   6.598  1.2505  1.4784  0.1160
 1841SOL     OW 7516   4.547   0.039   2.760 -0.4397 -0.1137 -0.1787
 1841SOL    HW1 7517   4.510   0.076   2.840  2.4079 -0.8103  1.6059
 1841SOL    HW2 7518   4.614   0.102   2.733  0.5804 -1.2471 -0.3537
 1842SOL     OW 7519   7.033   6.606   1.617 -0.1694  0.2385  0.1692
 1842SOL    HW1 7520   7.113   6.631   1.572  1.4254  0.1723  2.7412
 1842SOL    HW2 7521   6.979   6.685   1.615  0.6433  0.7941 -0.2295
 1843SOL     OW 7522   6.083   4.780   2.584  0.7130  0.2331  0.0632
 1843SOL    HW1 7523   6.066   4.689   2.606 -0.7295  0.3425 -0.4626
 1843SOL    HW2 7524   6.085   4.825   2.669  0.8390 -0.1959  0.2900
 1844SOL     OW 7525   0.431   5.034   4.780 -0.0334 -0.8396 -0.0025
 1844SOL    HW1 7526   0.383   4.955   4.803 -0.9868 -0.0674  0.7332
 1844SOL    HW2 7527   0.521   5.018   4.811  1.1045 -3.4758 -3.9076
 1845SOL     OW 7528   0.925   0.024   4.493 -0.2310 -0.0317  0.4198
 1845SOL    HW1 7529   0.942   0.081   4.568  0.0860 -0.5192  0.7201
 1845SOL    HW2 7530   0.831   0.006   4.498 -0.7109  1.8869 -0.6945
 1846SOL     OW 7531   2.324   1.188   3.748 -0.1560  0.4162  1.1050
 1846SOL    HW1 7532   2.268   1.143   3.811 -1.8925 -1.0857 -1.3431
 1846SOL    HW2 7533   2.270   1.260   3.715 -1.1191 -1.4599 -1.7929
 1847SOL     OW 7534   6.302   5.143   8.413  0.1573  0.1933 -0.4592
 1847SOL    HW1 7535   6.292   5.048   8.415  0.2423  0.1809 -0.6289
 1847SOL    HW2 7536   6.374   5.161   8.473  1.0379  0.0324 -1.4324
 1848SOL     OW 7537   7.297   1.183   7.868  0.1390 -0.1539  0.1699
 1848SOL    HW1 7538   7.212   1.143   7.845 -0.3784  1.8534 -1.7466
 1848SOL    HW2 7539   7.277   1.237   7.944 -0.2279 -0.0310 -0.0060
 1849SOL     OW 7540   6.951   6.181   4.112 -0.3563  0.1493  0.3168
 1849SOL    HW1 7541   6.961   6.276   4.113 -1.3874  0.3442 -1.8341
 1849SOL    HW2 7542   7.041   6.147   4.107 -0.0082  1.0338  0.4987
 1850SOL     OW 7543   3.723   3.781   3.866  0.2135  0.0008 -0.0907
 1850SOL    HW1 7544   3.749   3.703   3.818 -0.5775 -0.3482  0.0330
 1850SOL    HW2 7545   3.805   3.825   3.886  0.6299 -0.4988 -0.6634
 1851SOL     OW 7546   1.531   2.709   4.214  0.9658 -0.1445 -0.7081
 1851SOL    HW1 7547   1.617   2.669   4.228  0.8272 -0.2445 -0.1282
 1851SOL    HW2 7548   1.480   2.685   4.291 -0.2865 -1.9547 -2.0109
 1852SOL     OW 7549   5.971   3.493   6.418  0.0069  0.1439  0.2444
 1852SOL    HW1 7550   5.933   3.478   6.332  0.0725 -0.1429  0.2623
 1852SOL    HW2 7551   6.016   3.411   6.438  0.7507  0.5244  0.1626
 1853SOL     OW 7552   2.153   8.299   4.967  0.2661 -0.4333  0.4048
 1853SOL    HW1 7553   2.143   8.362   4.896  1.3725  0.5533  1.0966
 1853SOL    HW2 7554   2.064   8.286   5.001 -0.0793  0.1263 -0.2627
 1854SOL     OW 7555   7.371   4.056   3.987 -0.0696  0.0071 -0.1801
 1854SOL    HW1 7556   7.371   3.961   3.981  1.0303  0.0264 -0.7496
 1854SOL    HW2 7557   7.282   4.079   4.014  0.2230 -1.2969  2.1360
 1855SOL     OW 7558   1.606   0.805   6.119 -0.4486  0.2840  0.4294
 1855SOL    HW1 7559   1.667   0.733   6.099 -2.9314 -2.6711  2.5803
 1855SOL    HW2 7560   1.616   0.819   6.213 -1.8345  0.9411  0.5019
 1856SOL     OW 7561   6.690   0.164   4.510  0.1027  0.3445  0.4252
 1856SOL    HW1 7562   6.729   0.244   4.545  0.6577  1.0907 -1.7310
 1856SOL    HW2 7563   6.741   0.093   4.550  0.5102  1.1139  1.2980
 1857SOL     OW 7564   6.618   3.463   6.777 -0.0487  0.6670 -0.2605
 1857SOL    HW1 7565   6.589   3.553   6.764 -0.1265  0.9038  1.3185
 1857SOL    HW2 7566   6.701   3.472   6.825 -0.1587 -0.0845  0.0824
 1858SOL     OW 7567   5.995   2.757   5.140 -0.1872 -0.1715  0.2027
 1858SOL    HW1 7568   5.997   2.668   5.103 -3.2246 -2.0386  3.8684
 1858SOL    HW2 7569   6.057   2.753   5.213 -0.6758  0.6053  0.6586
 1859SOL     OW 7570   0.689   3.444   0.471 -0.1544 -0.9422  0.2721
 1859SOL    HW1 7571   0.731   3.524   0.503  0.9329 -0.7893 -1.4315
 1859SOL    HW2 7572   0.627   3.474   0.404 -1.3906 -1.3725  1.1746
 1860SOL     OW 7573   5.382   2.292   7.937  0.3197 -0.0736 -0.3000
 1860SOL    HW1 7574   5.307   2.259   7.985 -0.5837 -0.0752 -1.6414
 1860SOL    HW2 7575   5.378   2.246   7.853  0.4713  1.5953 -1.2614
 1861SOL     OW 7576   1.700   5.374   1.410  0.0628 -0.6292  0.2954
 1861SOL    HW1 7577   1.738   5.320   1.341  1.4622  0.2295  0.3663
 1861SOL    HW2 7578   1.758   5.362   1.485 -0.2374  0.1068  0.6535
 1862SOL     OW 7579   0.966   8.707   5.498 -0.0781 -0.4221 -0.4313
 1862SOL    HW1 7580   0.961   8.647   5.572 -1.1539 -0.1141 -0.2477
 1862SOL    HW2 7581   1.035   8.670   5.442 -0.7366 -1.8361 -0.3402
 1863SOL     OW 7582   7.522   6.482   2.436 -0.1588  0.2463  0.0400
 1863SOL    HW1 7583   7.546   6.493   2.344  0.5294  2.6818  0.4128
 1863SOL    HW2 7584   7.594   6.431   2.473 -1.0572 -1.8415 -0.9682
 1864SOL     OW 7585   8.698   8.121   5.888 -0.1035 -0.0413 -0.5574
 1864SOL    HW1 7586   8.752   8.086   5.817 -0.8906 -1.6656 -0.4057
 1864SOL    HW2 7587   8.608   8.114   5.856 -0.3308  1.8295 -0.4677
 1865SOL     OW 7588   1.995   3.907   8.613  0.2189  0.1420  0.1115
 1865SOL    HW1 7589   1.906   3.875   8.605  0.6716 -1.0222 -0.6032
 1865SOL    HW2 7590   1.986   4.002   8.626 -1.1876 -0.3086  3.0912
 1866SOL     OW 7591   0.203   3.311   6.210 -0.3034  0.6953 -0.6955
 1866SOL    HW1 7592   0.242   3.233   6.171 -1.5071 -0.0245 -0.5256
 1866SOL    HW2 7593   0.111   3.288   6.221 -0.7538  2.2725 -0.9571
 1867SOL     OW 7594   8.097   8.642   0.474  0.3490 -0.3829 -0.4343
 1867SOL    HW1 7595   8.190   8.655   0.460  0.7285 -1.1248  1.1571
 1867SOL    HW2 7596   8.091   8.601   0.560 -1.5640  1.4598  0.4036
 1868SOL     OW 7597   5.517   0.894   2.820 -0.0908 -0.2938 -0.6411
 1868SOL    HW1 7598   5.447   0.871   2.759  0.5409 -1.4541 -0.9533
 1868SOL    HW2 7599   5.491   0.980   2.854 -2.0934 -1.0561 -0.0929
 1869SOL     OW 7600   5.313   5.414   0.238  0.5463  0.2521  0.1062
 1869SOL    HW1 7601   5.365   5.482   0.282  2.1725 -0.6128 -0.4150
 1869SOL    HW2 7602   5.223   5.446   0.244  1.0776  1.6584  1.3090
 1870SOL     OW 7603   6.194   3.117   1.538  0.1389  0.6307 -0.3387
 1870SOL    HW1 7604   6.149   3.063   1.603 -1.1447  1.4030 -0.5373
 1870SOL    HW2 7605   6.124   3.145   1.479  0.6766  2.8571  0.0098
 1871SOL     OW 7606   0.337   7.037   0.042 -0.2500  0.1922  0.1066
 1871SOL    HW1 7607   0.413   7.095   0.037 -0.3231  0.6203  2.5416
 1871SOL    HW2 7608   0.341   7.000   0.130 -1.1927 -2.1844 -0.7767
 1872SOL     OW 7609   2.005   1.117   5.480  0.1459  0.4240  0.0732
 1872SOL    HW1 7610   1.938   1.103   5.547  0.6992 -0.5275  0.4561
 1872SOL    HW2 7611   1.997   1.209   5.457 -1.1410  0.3837  0.2636
 1873SOL     OW 7612   4.469   7.867   6.854 -0.3525  0.0356 -0.1198
 1873SOL    HW1 7613   4.412   7.916   6.912 -0.5124 -0.2400 -0.0403
 1873SOL    HW2 7614   4.494   7.929   6.785 -0.2752  0.3223  0.1644
 1874SOL     OW 7615   2.286   8.837   8.376 -0.0330 -1.1205 -0.3483
 1874SOL    HW1 7616   2.289   8.742   8.366  1.1694 -1.1345  0.0776
 1874SOL    HW2 7617   2.233   8.866   8.302 -0.9520 -2.1623 -0.1256
 1875SOL     OW 7618   0.633   5.656   8.833  0.3892 -0.3323  0.2238
 1875SOL    HW1 7619   0.680   5.705   8.900  1.0005 -0.1604 -0.3276
 1875SOL    HW2 7620   0.551   5.704   8.820  0.9224  0.4683 -0.2108
 1876SOL     OW 7621   3.153   3.055   5.924  0.1435  0.3423 -0.5787
 1876SOL    HW1 7622   3.239   3.082   5.956 -0.6118  0.4403  1.4834
 1876SOL    HW2 7623   3.141   2.966   5.958 -0.6960  0.4526 -0.5704
 1877SOL     OW 7624   7.165   1.079   5.006  0.3311  0.3723 -0.5952
 1877SOL    HW1 7625   7.119   1.052   5.086  2.0634 -0.4654  0.1620
 1877SOL    HW2 7626   7.202   1.165   5.029  0.7442  0.1763 -0.5181
 1878SOL     OW 7627   1.421   8.547   6.916  0.2873 -0.8384  0.4026
 1878SOL    HW1 7628   1.432   8.470   6.860  0.1522  0.9069 -2.1745
 1878SOL    HW2 7629   1.326   8.560   6.921  0.3466 -0.2015 -0.0980
 1879SOL     OW 7630   5.123   7.398   2.656  0.0584 -0.4298 -0.2115
 1879SOL    HW1 7631   5.065   7.474   2.656  1.4819  0.7745  1.5582
 1879SOL    HW2 7632   5.104   7.354   2.739  1.4018 -0.1821  0.2509
 1880SOL     OW 7633   7.133   4.782   4.469 -0.1267 -0.1274  0.1140
 1880SOL    HW1 7634   7.150   4.851   4.405 -2.8205  0.5284  0.0144
 1880SOL    HW2 7635   7.084   4.716   4.420 -0.0264 -0.8150  0.9191
 1881SOL     OW 7636   5.282   6.801   4.651  0.1654 -0.0357 -0.5402
 1881SOL    HW1 7637   5.220   6.753   4.705  1.1719  1.7872  2.4938
 1881SOL    HW2 7638   5.346   6.735   4.624 -0.2983 -1.0092  0.6341
 1882SOL     OW 7639   8.558   0.295   5.515 -0.2516  0.2847 -0.0524
 1882SOL    HW1 7640   8.645   0.321   5.485  1.6307 -2.1028  2.6798
 1882SOL    HW2 7641   8.531   0.227   5.454  0.0906  0.5836 -0.5454
 1883SOL     OW 7642   8.390   8.512   6.527 -0.0030 -0.3499  0.1699
 1883SOL    HW1 7643   8.363   8.598   6.496 -0.5660 -0.5964 -0.0414
 1883SOL    HW2 7644   8.354   8.451   6.463  0.0756 -0.7643  0.5189
 1884SOL     OW 7645   5.285   7.678   1.441 -0.0379  0.4626 -0.2518
 1884SOL    HW1 7646   5.204   7.720   1.471  0.2979  1.5122 -0.7546
 1884SOL    HW2 7647   5.347   7.692   1.513  1.0635  3.8534 -1.6583
 1885SOL     OW 7648   0.859   6.531   8.809 -0.1323 -0.0685  0.1864
 1885SOL    HW1 7649   0.907   6.519   8.890 -0.5932  0.9011  0.6215
 1885SOL    HW2 7650   0.771   6.498   8.828  0.1294 -1.1356 -0.3688
 1886SOL     OW 7651   6.896   1.711   5.976 -0.1615 -0.4663  0.5339
 1886SOL    HW1 7652   6.917   1.766   6.052 -1.2210 -0.8544  1.1257
 1886SOL    HW2 7653   6.809   1.675   5.996  0.4584 -2.2738  0.1223
 1887SOL     OW 7654   5.901   4.441   6.503 -0.5977  0.0262 -0.4557
 1887SOL    HW1 7655   5.820   4.405   6.538 -0.5892 -1.3055 -1.7153
 1887SOL    HW2 7656   5.873   4.505   6.438 -0.6072  1.9173  1.3094
 1888SOL     OW 7657   7.337   3.910   5.656 -0.1464  0.2276 -0.0527
 1888SOL    HW1 7658   7.330   3.983   5.595 -0.2040  1.1551  1.0278
 1888SOL    HW2 7659   7.259   3.857   5.638 -0.8739  1.2019  0.1103
 1889SOL     OW 7660   1.844   3.655   4.255  0.2260 -0.5173 -0.0620
 1889SOL    HW1 7661   1.935   3.652   4.223  0.3165  0.2223  0.0984
 1889SOL    HW2 7662   1.793   3.685   4.179  0.2058 -0.3380  0.0222
 1890SOL     OW 7663   4.735   4.279   2.475 -0.2288 -0.3441 -0.4267
 1890SOL    HW1 7664   4.642   4.283   2.496 -0.0150  1.7988  0.4503
 1890SOL    HW2 7665   4.756   4.368   2.444  1.4951 -0.8165 -0.7437
 1891SOL     OW 7666   7.843   0.176   6.685  0.2856  0.1933 -0.5124
 1891SOL    HW1 7667   7.894   0.205   6.761 -0.9720  0.1100  0.3867
 1891SOL    HW2 7668   7.786   0.250   6.664 -0.7278 -0.4631 -0.1624
 1892SOL     OW 7669   6.238   2.302   1.826 -0.3842  0.0510 -0.1601
 1892SOL    HW1 7670   6.208   2.220   1.785 -0.4984 -0.8407  1.5781
 1892SOL    HW2 7671   6.320   2.278   1.869 -0.5567  0.7842  0.5920
 1893SOL     OW 7672   4.429   3.082   8.436  0.3444  0.3541  0.1973
 1893SOL    HW1 7673   4.491   3.024   8.392  0.8551  0.8288  0.2693
 1893SOL    HW2 7674   4.343   3.052   8.408  0.5075 -1.5559  1.6036
 1894SOL     OW 7675   0.971   1.712   0.699  0.1128 -0.7583  0.0926
 1894SOL    HW1 7676   1.049   1.722   0.646 -0.3799  0.3995 -0.4494
 1894SOL    HW2 7677   0.964   1.794   0.748  0.1384 -1.4975  1.3904
 1895SOL     OW 7678   7.348   6.423   7.348  0.0621 -0.1336  0.2097
 1895SOL    HW1 7679   7.311   6.493   7.401 -0.4552 -1.1734  1.2686
 1895SOL    HW2 7680   7.385   6.467   7.272  0.2184  1.3322  1.1065
 1896SOL     OW 7681   7.371   8.399   3.588 -0.2830 -0.1847 -0.0212
 1896SOL    HW1 7682   7.352   8.342   3.514 -0.0390 -1.5475  0.9290
 1896SOL    HW2 7683   7.465   8.390   3.603 -0.6854 -1.8336  1.9120
 1897SOL     OW 7684   3.559   6.927   6.891 -0.5339 -0.3262 -0.0315
 1897SOL    HW1 7685   3.652   6.940   6.905 -0.7679 -0.0180  1.3168
 1897SOL    HW2 7686   3.554   6.881   6.807  0.8712 -1.0950  0.2729
 1898SOL     OW 7687   2.917   2.088   6.278 -0.4747 -1.2702 -0.0058
 1898SOL    HW1 7688   2.885   2.118   6.193  0.6131  0.1897  0.0598
 1898SOL    HW2 7689   2.922   1.993   6.270 -0.7592 -1.1780 -1.4357
 1899SOL     OW 7690   0.986   8.851   0.856  0.0296  0.2007  0.7009
 1899SOL    HW1 7691   0.963   8.776   0.911 -0.7062  0.3656  0.6163
 1899SOL    HW2 7692   1.029   8.812   0.779  0.0524 -0.0999  0.8646
 1900SOL     OW 7693   4.184   7.950   6.245 -0.2170  0.2522  0.2036
 1900SOL    HW1 7694   4.177   7.873   6.188 -1.6101  0.7491 -0.3493
 1900SOL    HW2 7695   4.230   7.918   6.323  0.8077 -0.6871 -0.7596
 1901SOL     OW 7696   5.558   5.541   6.850  0.1093  0.1625 -0.1382
 1901SOL    HW1 7697   5.468   5.522   6.822  1.1463 -0.4538 -3.6433
 1901SOL    HW2 7698   5.592   5.456   6.877  0.1712 -0.0187 -0.7496
 1902SOL     OW 7699   0.281   8.421   6.116  0.2955 -0.8462 -0.0045
 1902SOL    HW1 7700   0.352   8.443   6.055  0.8241  1.7443  1.3824
 1902SOL    HW2 7701   0.205   8.409   6.059  1.2777 -1.0777 -1.3425
 1903SOL     OW 7702   6.900   8.044   2.036 -0.1646 -0.2444 -0.3919
 1903SOL    HW1 7703   6.948   7.992   1.971 -2.0180 -1.1995 -1.0616
 1903SOL    HW2 7704   6.968   8.092   2.083  1.2223  1.1199 -3.5233
 1904SOL     OW 7705   4.685   4.968   6.098 -0.1408 -0.1354  0.5753
 1904SOL    HW1 7706   4.636   4.974   6.016 -0.3350  0.6058  0.7330
 1904SOL    HW2 7707   4.685   5.058   6.132  0.6627 -0.2778  0.9640
 1905SOL     OW 7708   7.138   4.496   2.487  0.2421 -0.5767 -0.0628
 1905SOL    HW1 7709   7.225   4.537   2.488 -0.6818  1.5803  1.9074
 1905SOL    HW2 7710   7.147   4.420   2.546  0.9580 -0.8075 -0.4561
 1906SOL     OW 7711   5.766   3.241   8.272 -0.7777  0.6360  0.2989
 1906SOL    HW1 7712   5.698   3.191   8.225 -0.6172  0.2706  0.4458
 1906SOL    HW2 7713   5.798   3.304   8.208 -1.0749  0.6346  0.1470
 1907SOL     OW 7714   4.517   2.888   0.756 -0.4306  0.1513 -0.1657
 1907SOL    HW1 7715   4.578   2.884   0.830  0.4885  0.3862 -0.8833
 1907SOL    HW2 7716   4.568   2.928   0.686 -0.7164 -1.6346 -1.4583
 1908SOL     OW 7717   5.471   0.538   7.548 -0.0405  0.1366  0.4345
 1908SOL    HW1 7718   5.445   0.612   7.603 -0.0797  0.8709 -0.5307
 1908SOL    HW2 7719   5.415   0.546   7.470 -1.5831 -2.1725  1.2064
 1909SOL     OW 7720   5.046   1.188   4.685 -0.3231  0.3403  0.2124
 1909SOL    HW1 7721   5.117   1.129   4.660 -2.0888 -0.8242 -2.5917
 1909SOL    HW2 7722   5.061   1.267   4.633 -0.8092  0.2763 -0.0291
 1910SOL     OW 7723   5.529   6.966   7.452 -0.3590 -0.1694 -0.3939
 1910SOL    HW1 7724   5.515   7.016   7.372 -0.0492 -1.5091 -1.3143
 1910SOL    HW2 7725   5.509   7.028   7.523 -1.1792  0.8708 -1.4975
 1911SOL     OW 7726   5.174   5.584   6.628  0.2219  0.2050 -0.0777
 1911SOL    HW1 7727   5.093   5.566   6.580  0.2463  0.0397 -0.0542
 1911SOL    HW2 7728   5.226   5.638   6.568 -0.4418  1.4026  0.3920
 1912SOL     OW 7729   1.869   4.901   4.503 -0.3121 -0.2683 -0.1841
 1912SOL    HW1 7730   1.896   4.893   4.412 -0.7253 -0.6252 -0.2748
 1912SOL    HW2 7731   1.951   4.915   4.551 -0.0343 -0.6686 -0.5366
 1913SOL     OW 7732   2.743   0.278   8.594  0.2384 -0.1531 -0.0384
 1913SOL    HW1 7733   2.816   0.293   8.534  0.6041  1.0093  0.6658
 1913SOL    HW2 7734   2.785   0.271   8.681 -0.4624  0.3156  0.3446
 1914SOL     OW 7735   5.722   3.439   7.671 -0.1076 -0.3977 -0.2041
 1914SOL    HW1 7736   5.669   3.480   7.602  1.4024  0.1331 -1.0949
 1914SOL    HW2 7737   5.738   3.350   7.639  0.0454 -0.3628 -0.2243
 1915SOL     OW 7738   5.081   0.499   7.889  0.0224  0.4821  0.1208
 1915SOL    HW1 7739   5.007   0.518   7.831  0.4798  0.5300 -0.4580
 1915SOL    HW2 7740   5.136   0.438   7.840 -0.5109 -0.9736  1.2468
 1916SOL     OW 7741   6.141   8.030   2.399  0.0352  0.5147  0.8445
 1916SOL    HW1 7742   6.199   7.958   2.374  0.1278  0.8026  0.2058
 1916SOL    HW2 7743   6.125   8.016   2.492 -0.6110 -0.8062  0.5691
 1917SOL     OW 7744   3.881   8.003   3.359 -0.7979 -0.3564 -0.2384
 1917SOL    HW1 7745   3.811   8.068   3.353 -0.7010 -0.2181  0.1275
 1917SOL    HW2 7746   3.907   7.988   3.268 -1.3293 -0.4405 -0.3848
 1918SOL     OW 7747   3.128   3.675   8.071  0.1236  0.0201  0.4472
 1918SOL    HW1 7748   3.094   3.762   8.092 -1.6601 -0.4746 -0.2230
 1918SOL    HW2 7749   3.086   3.617   8.134  0.6155 -0.4761  0.3178
 1919SOL     OW 7750   2.966   5.708   2.157  0.2861 -0.5943  0.3279
 1919SOL    HW1 7751   3.007   5.652   2.091 -0.0524 -0.2009 -0.2342
 1919SOL    HW2 7752   3.037   5.764   2.189  0.2155  0.0904 -0.6432
 1920SOL     OW 7753   1.416   4.319   2.439  0.2071  0.2474  0.1164
 1920SOL    HW1 7754   1.367   4.330   2.357 -1.6886  0.0313  1.1786
 1920SOL    HW2 7755   1.495   4.273   2.413 -0.9727 -1.0120 -1.4290
 1921SOL     OW 7756   0.741   7.289   0.935 -0.3987 -0.4152  0.1053
 1921SOL    HW1 7757   0.711   7.321   0.850 -2.3944 -0.8346  0.5909
 1921SOL    HW2 7758   0.819   7.237   0.915  1.5015  2.6349 -0.9706
 1922SOL     OW 7759   3.741   5.551   3.058  0.1802 -0.2147  0.0971
 1922SOL    HW1 7760   3.827   5.552   3.101  0.0514 -0.2927  0.3566
 1922SOL    HW2 7761   3.759   5.581   2.969 -0.0217  2.9257  1.0141
 1923SOL     OW 7762   0.839   8.512   0.014 -0.2538  0.4588  0.2029
 1923SOL    HW1 7763   0.818   8.419   0.004  1.4282 -0.3439  3.0284
 1923SOL    HW2 7764   0.910   8.527  -0.050 -1.2583  0.1379 -1.0294
 1924SOL     OW 7765   5.663   4.296   6.719  0.0076  0.0006  0.7193
 1924SOL    HW1 7766   5.617   4.360   6.774  2.0079  1.3799  0.8998
 1924SOL    HW2 7767   5.742   4.275   6.768 -0.2407 -2.1231  0.3117
 1925SOL     OW 7768   0.003   3.724   0.911 -0.2084  0.0383  0.7634
 1925SOL    HW1 7769  -0.029   3.808   0.877 -0.4558 -0.2867  0.1771
 1925SOL    HW2 7770   0.063   3.692   0.843 -1.0569 -0.8373  0.4059
 1926SOL     OW 7771   1.324   7.369   5.753 -0.1127  0.0623 -0.5249
 1926SOL    HW1 7772   1.241   7.417   5.756  0.3814  0.9316 -0.0082
 1926SOL    HW2 7773   1.302   7.280   5.778 -0.7463  0.5274  0.6738
 1927SOL     OW 7774   3.006   3.997   1.161  0.3068 -0.2517  0.6246
 1927SOL    HW1 7775   3.088   3.948   1.154 -0.1740 -1.0207  0.2503
 1927SOL    HW2 7776   3.008   4.057   1.086 -0.2321 -1.4618 -0.4026
 1928SOL     OW 7777   3.299   7.335   0.517 -0.0008  0.3474  0.8186
 1928SOL    HW1 7778   3.314   7.370   0.605  0.8846  1.3254  0.3021
 1928SOL    HW2 7779   3.374   7.277   0.502  0.2218  0.7372  0.4356
 1929SOL     OW 7780   2.082   2.214   7.732 -0.6221 -0.4683  0.0798
 1929SOL    HW1 7781   2.072   2.308   7.715 -1.5500  0.0406  2.8594
 1929SOL    HW2 7782   2.114   2.178   7.650  2.0009  2.6329 -0.4741
 1930SOL     OW 7783   0.642   6.958   2.982 -0.2583 -0.2061  0.1708
 1930SOL    HW1 7784   0.606   6.977   2.895  1.0440  1.6219 -0.0108
 1930SOL    HW2 7785   0.689   6.875   2.971  0.1881  0.1788 -0.9720
 1931SOL     OW 7786   3.109   3.716   6.520 -0.4009 -0.2925  0.3576
 1931SOL    HW1 7787   3.031   3.760   6.555 -1.1032 -0.5634 -0.8300
 1931SOL    HW2 7788   3.081   3.626   6.507  0.5140 -0.6994  1.1346
 1932SOL     OW 7789   3.718   2.239   0.679 -0.3122  0.3688  0.0457
 1932SOL    HW1 7790   3.728   2.170   0.614  0.5480 -0.1144  0.6597
 1932SOL    HW2 7791   3.738   2.196   0.762  1.0952  1.5460  0.3524
 1933SOL     OW 7792   5.179   1.319   8.797 -0.3333 -0.2956  1.0774
 1933SOL    HW1 7793   5.132   1.399   8.820  0.7323  0.8851 -0.5938
 1933SOL    HW2 7794   5.200   1.330   8.704  1.5105 -1.6537  1.2794
 1934SOL     OW 7795   3.252   7.673   5.040  0.0017 -0.0845  0.1904
 1934SOL    HW1 7796   3.194   7.633   4.976 -1.9157  1.3462  0.9537
 1934SOL    HW2 7797   3.243   7.619   5.118 -0.5730  0.3259  0.4114
 1935SOL     OW 7798   6.738   7.944   6.739  0.4746  0.0949  0.1359
 1935SOL    HW1 7799   6.703   7.889   6.668  2.1217 -1.5958  0.5489
 1935SOL    HW2 7800   6.789   7.883   6.793  0.4409  1.6225  1.9796
 1936SOL     OW 7801   7.798   7.246   6.186  0.3733 -0.0035  0.1009
 1936SOL    HW1 7802   7.850   7.191   6.129 -0.0703 -1.6086  1.1708
 1936SOL    HW2 7803   7.709   7.240   6.150  0.4207  0.4690 -0.0994
 1937SOL     OW 7804   2.043   0.709   6.197  0.1604  0.3100  0.1133
 1937SOL    HW1 7805   2.133   0.739   6.187  0.1854  0.1472 -0.1889
 1937SOL    HW2 7806   1.995   0.784   6.232  0.4498  0.3396  0.4468
 1938SOL     OW 7807   1.451   7.129   3.879 -0.5116 -0.0092 -0.1098
 1938SOL    HW1 7808   1.359   7.105   3.892 -0.2209 -1.3471 -0.3159
 1938SOL    HW2 7809   1.484   7.063   3.817  1.1485 -0.9439  1.6489
 1939SOL     OW 7810   0.552   7.287   7.076 -0.5464  0.1967 -0.9744
 1939SOL    HW1 7811   0.593   7.362   7.033  2.2525 -1.0327 -0.6281
 1939SOL    HW2 7812   0.567   7.214   7.017  0.7615 -0.9465  0.6882
 1940SOL     OW 7813   5.427   4.011   8.172 -0.1820  0.2494 -0.2479
 1940SOL    HW1 7814   5.408   4.095   8.130 -1.7949  0.1986  0.3008
 1940SOL    HW2 7815   5.522   4.001   8.165  0.0914  2.2846 -0.0062
 1941SOL     OW 7816   3.432   7.021   0.699  0.3058 -0.3313  0.1796
 1941SOL    HW1 7817   3.464   7.090   0.641  2.4386 -0.4031  1.1993
 1941SOL    HW2 7818   3.442   7.057   0.787 -1.5058 -0.7972  0.6306
 1942SOL     OW 7819   6.212   6.742   3.498 -0.3762 -0.0596  0.0328
 1942SOL    HW1 7820   6.185   6.695   3.577 -1.9971 -0.2026 -0.5539
 1942SOL    HW2 7821   6.246   6.673   3.440 -0.8007 -0.2143 -0.0368
 1943SOL     OW 7822   3.453   4.335   0.447 -0.1527  0.2883 -0.3295
 1943SOL    HW1 7823   3.463   4.399   0.377  2.8374  0.1769 -0.1286
 1943SOL    HW2 7824   3.463   4.386   0.527 -0.0695 -0.0771 -0.1067
 1944SOL     OW 7825   5.269   7.719   6.924  0.0071 -0.0241 -0.2484
 1944SOL    HW1 7826   5.271   7.624   6.920 -0.8034 -0.0145 -1.5027
 1944SOL    HW2 7827   5.360   7.746   6.916  0.2966 -0.6901  0.6278
 1945SOL     OW 7828   0.251   3.350   1.441 -0.6346 -0.3414  0.6849
 1945SOL    HW1 7829   0.240   3.341   1.347 -1.2865 -0.2705  0.7450
 1945SOL    HW2 7830   0.161   3.349   1.476 -0.5177  1.4087  1.1376
 1946SOL     OW 7831   1.854   6.893   7.790  0.1026  0.2591 -0.1029
 1946SOL    HW1 7832   1.890   6.928   7.709  1.1755 -1.4228 -0.3940
 1946SOL    HW2 7833   1.798   6.820   7.763 -1.6828  1.3451  0.5188
 1947SOL     OW 7834   0.837   2.198   6.112  0.4790  0.0575  0.3621
 1947SOL    HW1 7835   0.869   2.108   6.107 -2.0554 -0.9025  0.1717
 1947SOL    HW2 7836   0.856   2.226   6.202 -0.5414 -1.4463  1.0885
 1948SOL     OW 7837   6.957   7.802   8.762 -0.1182 -0.3337  0.6028
 1948SOL    HW1 7838   6.879   7.786   8.814 -0.1572 -2.7229 -0.1113
 1948SOL    HW2 7839   7.013   7.726   8.777  1.6483  0.8228  0.2841
 1949SOL     OW 7840   6.854   6.368   0.511 -0.0192 -0.3698  0.0838
 1949SOL    HW1 7841   6.944   6.378   0.541 -0.1769 -0.6420  0.6864
 1949SOL    HW2 7842   6.854   6.399   0.421  0.6663 -0.3278  0.0949
 1950SOL     OW 7843   7.257   2.518   6.590  0.2243  0.1557 -0.1669
 1950SOL    HW1 7844   7.341   2.517   6.636 -0.5836  0.1274  1.3923
 1950SOL    HW2 7845   7.249   2.431   6.552  0.4776 -0.1696  0.5061
 1951SOL     OW 7846   0.695   6.374   5.360  0.2530  0.1657 -0.1306
 1951SOL    HW1 7847   0.735   6.398   5.444  0.0681 -0.0306  0.0151
 1951SOL    HW2 7848   0.608   6.339   5.384  0.3100 -0.1518 -0.3784
 1952SOL     OW 7849   7.504   1.979   4.976  0.3785 -0.1126  0.1925
 1952SOL    HW1 7850   7.427   1.944   4.930 -0.7293  2.1780  0.1844
 1952SOL    HW2 7851   7.501   1.937   5.063 -0.6663 -0.3210  0.0689
 1953SOL     OW 7852   2.984   3.081   8.394 -0.5484 -0.8014 -0.1251
 1953SOL    HW1 7853   3.054   3.111   8.337 -0.6322  0.4821  0.4168
 1953SOL    HW2 7854   2.915   3.052   8.335 -0.1114 -0.7682 -0.6585
 1954SOL     OW 7855   8.504   6.910   8.560 -0.2899  0.0194  0.0610
 1954SOL    HW1 7856   8.451   6.986   8.584  0.4523  0.3291  0.7520
 1954SOL    HW2 7857   8.581   6.947   8.517  0.6059 -0.2407  1.3646
 1955SOL     OW 7858   7.257   4.848   5.103 -0.1748 -0.3611  0.3006
 1955SOL    HW1 7859   7.270   4.785   5.032  1.6656 -2.2905  2.1683
 1955SOL    HW2 7860   7.340   4.896   5.107 -0.7247  0.6033  0.3725
 1956SOL     OW 7861   7.393   6.596   0.013 -0.3208  0.2473  0.2997
 1956SOL    HW1 7862   7.423   6.509   0.040 -1.2942 -0.6219 -1.2864
 1956SOL    HW2 7863   7.472   6.651   0.016  0.8804 -1.2956 -1.0764
 1957SOL     OW 7864   6.425   2.491   3.496 -0.2172 -0.2006 -0.1660
 1957SOL    HW1 7865   6.442   2.398   3.483 -0.2950 -0.2408  0.0182
 1957SOL    HW2 7866   6.329   2.499   3.490 -0.1092  0.1801 -2.2771
 1958SOL     OW 7867   0.506   4.287   0.994  0.1464 -0.0395  0.3263
 1958SOL    HW1 7868   0.571   4.333   0.941 -1.2976  0.8993 -0.7128
 1958SOL    HW2 7869   0.545   4.200   1.010  0.5874 -0.4330 -2.4381
 1959SOL     OW 7870   5.785   0.277   3.568  0.0904  0.0039  0.1984
 1959SOL    HW1 7871   5.837   0.197   3.568  2.6866  1.5077 -1.7835
 1959SOL    HW2 7872   5.747   0.280   3.480 -1.5963  0.0316  0.9030
 1960SOL     OW 7873   2.733   8.828   0.811  0.2265  0.0877  0.4214
 1960SOL    HW1 7874   2.658   8.800   0.759 -0.1999 -0.5043  1.3410
 1960SOL    HW2 7875   2.747   8.919   0.785 -1.2493  0.4307  0.7410
 1961SOL     OW 7876   6.059   4.302   4.786  0.1295  1.0259 -0.3071
 1961SOL    HW1 7877   6.031   4.303   4.877  1.9070  0.3533  0.3055
 1961SOL    HW2 7878   5.978   4.311   4.735 -0.8045  2.4574  1.3171
 1962SOL     OW 7879   8.565   5.507   2.320  0.2047 -0.0533 -0.3099
 1962SOL    HW1 7880   8.574   5.458   2.402  0.4487  0.3643 -0.0790
 1962SOL    HW2 7881   8.514   5.450   2.262  2.1343 -1.4360 -0.7405
 1963SOL     OW 7882   0.518   0.017   5.362  0.8420  0.0281  0.3192
 1963SOL    HW1 7883   0.435  -0.028   5.379  0.6549 -0.9518 -2.6716
 1963SOL    HW2 7884   0.494   0.091   5.306  1.9771 -0.2986 -0.6169
 1964SOL     OW 7885   2.818   5.281   6.199 -0.0981  0.3903  0.7931
 1964SOL    HW1 7886   2.780   5.366   6.180 -0.3178  0.2727  0.7122
 1964SOL    HW2 7887   2.833   5.241   6.113 -2.4323 -0.7445  0.8421
 1965SOL     OW 7888   2.448   4.583   5.840 -0.4132 -0.4206  0.1626
 1965SOL    HW1 7889   2.470   4.547   5.926  1.6328 -1.2414 -0.6404
 1965SOL    HW2 7890   2.531   4.584   5.793 -1.0973  1.9219 -1.1474
 1966SOL     OW 7891   3.205   6.584   0.197  0.9862  0.3347  0.4052
 1966SOL    HW1 7892   3.178   6.606   0.107  0.0108 -0.0746  0.5833
 1966SOL    HW2 7893   3.300   6.586   0.194  1.0168 -1.1591 -1.0152
 1967SOL     OW 7894   2.788   3.688   3.533 -0.3131 -0.2536 -0.4736
 1967SOL    HW1 7895   2.751   3.605   3.565 -1.0750 -0.2969 -1.4050
 1967SOL    HW2 7896   2.881   3.669   3.521 -0.5871 -1.2044 -1.3123
 1968SOL     OW 7897   6.221   8.337   3.212 -0.6189  0.4707  0.0656
 1968SOL    HW1 7898   6.173   8.261   3.244 -1.5629  1.4511  1.0683
 1968SOL    HW2 7899   6.312   8.308   3.208 -0.8275 -0.4301  1.3352
 1969SOL     OW 7900   6.825   2.835   7.321  0.5472  0.4157 -0.4344
 1969SOL    HW1 7901   6.807   2.769   7.254  0.6974 -0.1127  0.0460
 1969SOL    HW2 7902   6.816   2.790   7.404  1.1613  0.8637 -0.1081
 1970SOL     OW 7903   7.563   5.409   7.202 -0.1241  0.3500 -0.0572
 1970SOL    HW1 7904   7.639   5.352   7.186  0.2503  1.0572 -0.8489
 1970SOL    HW2 7905   7.548   5.402   7.297  0.4038 -0.4490 -0.0204
 1971SOL     OW 7906   5.647   2.206   8.406 -0.3210  0.3236  0.3849
 1971SOL    HW1 7907   5.587   2.148   8.452 -1.8059 -0.0627 -1.8858
 1971SOL    HW2 7908   5.613   2.212   8.317  2.3179  1.1072 -0.7016
 1972SOL     OW 7909   0.316   3.592   4.660 -0.1503  0.1541 -0.1455
 1972SOL    HW1 7910   0.299   3.509   4.616 -3.2949  0.0562  0.9842
 1972SOL    HW2 7911   0.259   3.654   4.616  0.0661  1.0639  0.8211
 1973SOL     OW 7912   4.681   7.721   2.022 -0.0014  0.2128 -0.1266
 1973SOL    HW1 7913   4.724   7.787   1.966  0.1818  0.0429 -0.1873
 1973SOL    HW2 7914   4.616   7.771   2.071  0.0413  0.4177 -0.2738
 1974SOL     OW 7915   1.293   5.425   8.102 -0.2117  0.2534 -0.6220
 1974SOL    HW1 7916   1.238   5.487   8.148  0.7183  2.1602 -1.9616
 1974SOL    HW2 7917   1.380   5.436   8.141 -0.0218 -0.1804 -0.9073
 1975SOL     OW 7918   5.862   6.918   8.195 -0.3091 -0.1210  1.0250
 1975SOL    HW1 7919   5.864   6.939   8.102 -1.9769 -1.0402  0.7362
 1975SOL    HW2 7920   5.952   6.894   8.217 -0.4104 -2.9897 -1.1420
 1976SOL     OW 7921   1.888   8.089   5.006  0.2369 -0.0512  0.1362
 1976SOL    HW1 7922   1.805   8.043   5.012 -1.2490  2.4225  0.2656
 1976SOL    HW2 7923   1.881   8.141   4.926  1.7903  0.0086  0.0050
 1977SOL     OW 7924   7.331   2.120   2.257 -0.3754 -0.4261 -0.8065
 1977SOL    HW1 7925   7.315   2.027   2.244 -1.0957 -0.5577  0.8114
 1977SOL    HW2 7926   7.305   2.161   2.175  0.1877 -1.6708 -1.6231
 1978SOL     OW 7927   6.591   7.420   4.533  0.1229 -0.1513  0.1749
 1978SOL    HW1 7928   6.641   7.502   4.533  1.8697 -1.1928  0.5472
 1978SOL    HW2 7929   6.579   7.399   4.625 -0.4545 -0.2668  0.0795
 1979SOL     OW 7930   5.881   6.980   7.147 -0.7537 -0.5048  0.6427
 1979SOL    HW1 7931   5.844   6.917   7.209 -1.2084 -0.1958  0.6893
 1979SOL    HW2 7932   5.925   6.927   7.082 -0.2962 -0.8380  1.2150
 1980SOL     OW 7933   0.521   1.736   8.371  0.0179  0.1056 -0.1150
 1980SOL    HW1 7934   0.567   1.754   8.289  0.0238  0.0927 -0.1144
 1980SOL    HW2 7935   0.561   1.795   8.434 -0.9074  1.0799 -0.4238
 1981SOL     OW 7936   3.013   5.580   3.534  0.4220  0.6003 -0.0848
 1981SOL    HW1 7937   3.097   5.535   3.544  0.5665  0.8411 -0.2200
 1981SOL    HW2 7938   3.035   5.673   3.535  0.1835  0.6612 -0.3493
 1982SOL     OW 7939   3.602   2.510   5.980  0.1814  0.3865 -0.5302
 1982SOL    HW1 7940   3.603   2.440   5.915  0.5188  1.3142 -1.5561
 1982SOL    HW2 7941   3.574   2.588   5.931 -0.1499  0.9886  0.5720
 1983SOL     OW 7942   5.687   7.596   7.208  0.0706 -0.3797  0.3012
 1983SOL    HW1 7943   5.778   7.571   7.220  0.7234  1.6965  0.1443
 1983SOL    HW2 7944   5.673   7.595   7.113 -0.5961 -2.2656  0.3821
 1984SOL     OW 7945   2.339   4.004   2.016  0.2263  0.6344  0.4984
 1984SOL    HW1 7946   2.382   4.058   1.951 -0.0210  0.7553  0.4360
 1984SOL    HW2 7947   2.392   3.924   2.019  0.9509  1.1134  1.0321
 1985SOL     OW 7948   3.801   0.236   4.819 -0.4192  0.2752  0.1605
 1985SOL    HW1 7949   3.787   0.231   4.724 -0.3886 -0.4465  0.1913
 1985SOL    HW2 7950   3.742   0.171   4.856  0.1033  0.0296  0.5801
 1986SOL     OW 7951   4.222   0.645   1.607  0.2106  0.2814 -0.7261
 1986SOL    HW1 7952   4.129   0.655   1.625  0.0072 -1.5849 -0.5284
 1986SOL    HW2 7953   4.227   0.569   1.549  1.7624 -1.4253  1.4559
 1987SOL     OW 7954   0.078   5.678   2.196 -0.0443 -0.0218 -0.0571
 1987SOL    HW1 7955   0.072   5.677   2.100 -1.2288 -1.2077 -0.0063
 1987SOL    HW2 7956   0.118   5.594   2.219 -3.6131 -1.7879  0.5723
 1988SOL     OW 7957   1.972   6.000   3.825 -0.6131 -0.3402  0.2508
 1988SOL    HW1 7958   1.960   6.093   3.805  1.6957  0.3316  1.5558
 1988SOL    HW2 7959   1.972   5.996   3.921 -1.8252 -1.9079  0.2196
 1989SOL     OW 7960   5.818   0.452   1.853 -0.2587  0.0106 -0.0071
 1989SOL    HW1 7961   5.845   0.389   1.787 -0.4881  0.2159 -0.3020
 1989SOL    HW2 7962   5.896   0.504   1.870  0.5763 -1.7328  1.8609
 1990SOL     OW 7963   8.706   2.564   0.621  0.3194 -0.0385  0.2988
 1990SOL    HW1 7964   8.694   2.656   0.598 -0.8500 -0.4077 -0.6870
 1990SOL    HW2 7965   8.784   2.538   0.573  0.1726  0.2276 -0.0920
 1991SOL     OW 7966   0.810   7.867   6.845 -0.0257  0.1912 -0.0965
 1991SOL    HW1 7967   0.875   7.833   6.907 -0.3903  0.4765  0.4548
 1991SOL    HW2 7968   0.818   7.811   6.768  0.8614  0.2225 -0.0283
 1992SOL     OW 7969   5.229   7.874   4.683  0.3826  0.9387  0.4457
 1992SOL    HW1 7970   5.294   7.937   4.650  2.5696 -1.2087  0.3870
 1992SOL    HW2 7971   5.281   7.810   4.733 -1.7663 -0.6632  0.7629
 1993SOL     OW 7972   0.660   6.574   0.763  0.0467  0.0035 -0.3073
 1993SOL    HW1 7973   0.693   6.646   0.709  1.0958  0.8994  1.4330
 1993SOL    HW2 7974   0.629   6.616   0.843 -3.4357 -1.0504 -0.9485
 1994SOL     OW 7975   3.623   3.167   5.988 -0.6317  0.8294 -0.5486
 1994SOL    HW1 7976   3.662   3.244   6.028  2.4382 -0.7768 -0.1323
 1994SOL    HW2 7977   3.678   3.149   5.912 -1.4711 -0.7685 -0.8230
 1995SOL     OW 7978   2.023   8.098   8.107 -0.3936 -0.1724 -0.1434
 1995SOL    HW1 7979   1.940   8.135   8.077 -0.8328 -2.0044 -1.3771
 1995SOL    HW2 7980   2.047   8.150   8.184 -1.7358  1.5687 -0.8455
 1996SOL     OW 7981   6.705   2.160   4.179 -0.3459  0.4142 -0.4830
 1996SOL    HW1 7982   6.644   2.199   4.242 -0.9959  0.1117 -0.9095
 1996SOL    HW2 7983   6.789   2.157   4.224 -1.0498 -0.8761  0.8069
 1997SOL     OW 7984   1.224   7.566   6.584 -0.8654 -0.1062 -0.3807
 1997SOL    HW1 7985   1.166   7.579   6.508 -2.1948 -0.2824  0.5678
 1997SOL    HW2 7986   1.211   7.475   6.609  0.5443 -0.4176 -0.6815
 1998SOL     OW 7987   5.717   7.988   6.335 -0.4124 -0.0792 -0.6743
 1998SOL    HW1 7988   5.767   8.059   6.294  2.2635 -1.3549  0.1580
 1998SOL    HW2 7989   5.675   7.944   6.261  1.8954 -0.5392 -1.8259
 1999SOL     OW 7990   5.442   1.279   8.029  0.2550 -0.4610 -0.3093
 1999SOL    HW1 7991   5.530   1.307   8.002 -0.2683  0.7525 -0.8360
 1999SOL    HW2 7992   5.413   1.221   7.958  0.7466 -1.1555  0.0382
 2000SOL     OW 7993   0.636   7.114   6.816  0.1120 -0.2093  0.1705
 2000SOL    HW1 7994   0.590   7.030   6.817  0.2758 -0.3209 -0.5342
 2000SOL    HW2 7995   0.688   7.114   6.896  1.4561 -1.5682 -0.6293
 2001SOL     OW 7996   3.502   7.896   4.792 -0.6791  0.0079  0.0858
 2001SOL    HW1 7997   3.411   7.900   4.761 -1.9435  1.3243  3.4290
 2001SOL    HW2 7998   3.520   7.985   4.822  2.0060 -0.0781 -1.0626
 2002SOL     OW 7999   4.043   2.122   6.390 -0.3547 -0.3045  0.2605
 2002SOL    HW1 8000   4.094   2.151   6.314 -0.5976 -1.6417 -0.4474
 2002SOL    HW2 8001   3.962   2.087   6.352 -1.2938  0.6702  1.2836
 2003SOL     OW 8002   6.580   7.114   0.261  0.0926  0.2037  0.4022
 2003SOL    HW1 8003   6.540   7.196   0.232  0.8098  0.7004  0.8061
 2003SOL    HW2 8004   6.528   7.088   0.337  0.1323  0.5072  0.5338
 2004SOL     OW 8005   6.314   2.223   4.944 -0.1688  0.1800  0.0269
 2004SOL    HW1 8006   6.240   2.275   4.914 -0.9256 -0.9017 -0.0157
 2004SOL    HW2 8007   6.389   2.259   4.896 -0.9892 -0.0441 -1.5055
 2005SOL     OW 8008   8.169   0.491   1.761 -0.1538 -0.6691  0.3588
 2005SOL    HW1 8009   8.221   0.430   1.708  0.9926 -0.0561  0.7516
 2005SOL    HW2 8010   8.079   0.477   1.732  0.6102  1.4217 -3.6304
 2006SOL     OW 8011   5.843   5.458   1.855 -0.2034  0.8481  0.6250
 2006SOL    HW1 8012   5.817   5.521   1.788 -0.0161  0.7315  0.4419
 2006SOL    HW2 8013   5.889   5.511   1.920  1.1921  0.6958 -0.2099
 2007SOL     OW 8014   5.373   3.666   1.908  0.2528 -0.6216  0.5742
 2007SOL    HW1 8015   5.446   3.613   1.879 -0.2507 -1.1885  0.3314
 2007SOL    HW2 8016   5.392   3.754   1.875  0.0533 -1.0915 -0.8582
 2008SOL     OW 8017   8.337   2.386   3.784 -0.2745 -0.2836 -0.2170
 2008SOL    HW1 8018   8.257   2.335   3.771  0.1409 -2.0694  3.2990
 2008SOL    HW2 8019   8.407   2.328   3.754 -0.0656 -0.1895  0.0893
 2009SOL     OW 8020   8.739   2.232   5.776 -0.1441  0.9863 -0.4277
 2009SOL    HW1 8021   8.779   2.279   5.849 -0.8536  0.7530  0.1292
 2009SOL    HW2 8022   8.719   2.300   5.711 -0.6215  1.3785  0.1192
 2010SOL     OW 8023   6.618   3.666   4.921 -0.0468 -0.1253 -0.1471
 2010SOL    HW1 8024   6.683   3.640   4.856  0.7638 -0.5180  0.7899
 2010SOL    HW2 8025   6.618   3.762   4.917 -0.5032 -0.1556 -1.1800
 2011SOL     OW 8026   4.413   1.839   2.887 -0.1800 -0.3450 -0.0210
 2011SOL    HW1 8027   4.333   1.793   2.860 -0.8280  0.8394 -0.2339
 2011SOL    HW2 8028   4.470   1.834   2.810 -0.2200 -0.8195 -0.0232
 2012SOL     OW 8029   4.815   1.252   7.335  0.1325  0.0539 -0.5889
 2012SOL    HW1 8030   4.846   1.250   7.245  2.1827  1.2001  0.0380
 2012SOL    HW2 8031   4.894   1.245   7.388 -0.9271  0.5349  1.1359
 2013SOL     OW 8032   2.407   1.707   4.791 -0.5728 -0.1193 -0.2077
 2013SOL    HW1 8033   2.408   1.644   4.863 -2.1037 -1.0395 -0.9257
 2013SOL    HW2 8034   2.499   1.719   4.768 -0.1371 -0.7517  1.0896
 2014SOL     OW 8035   7.218   7.886   6.926 -0.1676  0.3906  0.1121
 2014SOL    HW1 8036   7.295   7.893   6.983 -0.5922  1.4523  0.5755
 2014SOL    HW2 8037   7.176   7.972   6.932 -1.4108 -0.1822 -0.1080
 2015SOL     OW 8038   6.852   0.999   1.674  0.6555 -0.2278  0.6644
 2015SOL    HW1 8039   6.784   0.948   1.717 -0.3529  0.2717 -0.2853
 2015SOL    HW2 8040   6.934   0.954   1.696 -0.1806 -2.1741 -0.0579
 2016SOL     OW 8041   1.457   4.634   1.876 -0.2072  0.3690  0.4675
 2016SOL    HW1 8042   1.513   4.663   1.948 -0.5213 -0.4283  1.0520
 2016SOL    HW2 8043   1.516   4.590   1.815  0.2445  2.0366 -0.3476
 2017SOL     OW 8044   7.563   5.478   4.951 -0.1636 -0.3615 -0.5302
 2017SOL    HW1 8045   7.559   5.573   4.961 -0.6596 -0.3269 -0.9892
 2017SOL    HW2 8046   7.619   5.448   5.023  0.7472  0.3627 -0.9234
 2018SOL     OW 8047   7.456   8.877   5.837  0.3243 -0.2634 -0.0217
 2018SOL    HW1 8048   7.502   8.906   5.759 -1.6552  1.5876 -0.5883
 2018SOL    HW2 8049   7.519   8.889   5.908  1.1378  0.9667 -0.9139
 2019SOL     OW 8050   6.213   1.362   0.820 -0.0129 -0.3718  0.0763
 2019SOL    HW1 8051   6.192   1.275   0.855  0.6590 -0.4671  0.2563
 2019SOL    HW2 8052   6.171   1.422   0.881  1.0230 -0.5412  0.9872
 2020SOL     OW 8053   1.626   4.257   2.264 -0.3756 -0.5000  0.0524
 2020SOL    HW1 8054   1.702   4.291   2.217  0.9641 -0.6950  1.9823
 2020SOL    HW2 8055   1.656   4.174   2.302 -1.7649 -0.9054  0.3209
 2021SOL     OW 8056   7.993   1.090   5.748 -0.0139  0.0186 -0.0930
 2021SOL    HW1 8057   7.979   1.170   5.699  1.1474 -0.0043 -0.4913
 2021SOL    HW2 8058   8.055   1.114   5.817  1.9616 -0.9329 -1.4383
 2022SOL     OW 8059   4.013   1.444   6.229 -0.2461  0.3127  0.3871
 2022SOL    HW1 8060   4.003   1.537   6.212 -2.4000 -0.2678 -2.4279
 2022SOL    HW2 8061   3.949   1.425   6.298 -1.2661  0.6447 -0.4400
 2023SOL     OW 8062   3.263   7.215   5.131  0.4037  0.1455  0.1751
 2023SOL    HW1 8063   3.330   7.147   5.142  0.3595  0.2891  1.4276
 2023SOL    HW2 8064   3.313   7.294   5.110  0.4693 -0.1838 -1.0331
 2024SOL     OW 8065   5.045   7.817   7.743 -0.0856 -0.7807 -0.1197
 2024SOL    HW1 8066   4.970   7.831   7.802 -0.0776 -1.0608 -0.0413
 2024SOL    HW2 8067   5.021   7.741   7.692  1.2932 -2.6198  1.8107
 2025SOL     OW 8068   2.178   8.058   2.565 -0.1283 -0.0358 -0.1806
 2025SOL    HW1 8069   2.235   7.995   2.522 -0.4933  0.0806 -0.8586
 2025SOL    HW2 8070   2.205   8.143   2.531 -0.0971  0.1089  0.1992
 2026SOL     OW 8071   1.780   5.343   8.239  1.0321 -0.1966  0.0349
 2026SOL    HW1 8072   1.821   5.363   8.323  1.2937 -0.9971  0.1093
 2026SOL    HW2 8073   1.829   5.394   8.175  1.0993  0.0976  0.3178
 2027SOL     OW 8074   5.958   7.422   1.319 -0.2595  0.0531  0.3938
 2027SOL    HW1 8075   5.878   7.402   1.368 -0.3639 -0.2111  0.1229
 2027SOL    HW2 8076   5.929   7.424   1.228 -0.3144  1.7714  0.4196
 2028SOL     OW 8077   0.199   0.197   8.143 -0.2731  0.6319 -0.1493
 2028SOL    HW1 8078   0.257   0.217   8.070 -1.3200  0.1671 -1.1251
 2028SOL    HW2 8079   0.257   0.197   8.220  0.5801  2.5740 -0.7456
 2029SOL     OW 8080   4.717   6.609   5.796  0.0659 -0.1394  0.3245
 2029SOL    HW1 8081   4.708   6.653   5.880 -0.8558  2.5128 -1.0615
 2029SOL    HW2 8082   4.811   6.592   5.787 -0.0286 -2.5413  2.7776
 2030SOL     OW 8083   8.083   0.465   2.022  0.5975 -0.2615 -0.2429
 2030SOL    HW1 8084   8.116   0.518   1.949 -1.2613  0.0674 -0.9150
 2030SOL    HW2 8085   8.094   0.375   1.993  1.7245 -0.1957 -0.0514
 2031SOL     OW 8086   1.620   3.163   0.198 -0.1468  0.3437  0.2154
 2031SOL    HW1 8087   1.645   3.071   0.198 -1.0756  0.0804 -0.1726
 2031SOL    HW2 8088   1.570   3.175   0.279  0.6572  0.7089  0.6675
 2032SOL     OW 8089   4.110   4.579   0.191 -0.5382  0.0582 -0.3713
 2032SOL    HW1 8090   4.198   4.546   0.210  0.2326  0.4200 -2.9051
 2032SOL    HW2 8091   4.114   4.672   0.210  0.4012  0.5341 -2.5560
 2033SOL     OW 8092   3.625   4.962   0.601  0.3499  0.0733 -1.1327
 2033SOL    HW1 8093   3.666   5.004   0.525 -0.8743 -1.4808 -2.7489
 2033SOL    HW2 8094   3.628   4.868   0.580 -1.7812 -0.2514 -0.2068
 2034SOL     OW 8095   6.150   2.104   7.148  0.4158 -0.2692  0.2722
 2034SOL    HW1 8096   6.189   2.074   7.231 -0.7787  0.2578  1.0559
 2034SOL    HW2 8097   6.056   2.103   7.164  0.1732  0.0160 -1.0362
 2035SOL     OW 8098   7.460   5.475   3.521  0.0252  0.1169 -0.3126
 2035SOL    HW1 8099   7.381   5.522   3.546 -0.1484 -0.4913  0.3167
 2035SOL    HW2 8100   7.514   5.540   3.476 -0.8903  0.4990 -0.8814
 2036SOL     OW 8101   8.565   7.554   7.266  0.9776 -0.3954  0.4876
 2036SOL    HW1 8102   8.471   7.570   7.269  0.1699 -3.2851 -2.9240
 2036SOL    HW2 8103   8.581   7.489   7.334  0.1091 -1.2450 -0.1011
 2037SOL     OW 8104   1.078   0.102   7.546  0.2873 -0.1576  0.2973
 2037SOL    HW1 8105   1.062   0.189   7.510  2.1883  0.6850  1.3795
 2037SOL    HW2 8106   1.154   0.070   7.497 -0.5232 -1.3268 -0.2396
 2038SOL     OW 8107   0.479   6.334   2.879  0.1608  0.1212  0.3327
 2038SOL    HW1 8108   0.438   6.256   2.917 -1.9119  0.8895 -0.2235
 2038SOL    HW2 8109   0.478   6.399   2.949  1.7278 -0.2428  0.7391
 2039SOL     OW 8110   0.932   4.788   6.915 -0.0961  0.1509 -0.3999
 2039SOL    HW1 8111   0.865   4.829   6.861  0.0406 -1.8682 -2.2117
 2039SOL    HW2 8112   0.914   4.819   7.004 -3.3821 -0.2309 -0.8234
 2040SOL     OW 8113   0.156   8.742   2.588  0.3223 -0.0725 -0.4714
 2040SOL    HW1 8114   0.130   8.829   2.555  1.3206  0.7041  0.7015
 2040SOL    HW2 8115   0.223   8.713   2.527  0.0290 -0.0044 -0.8347
 2041SOL     OW 8116   4.206   0.408   4.143 -0.2599  0.0995  0.1164
 2041SOL    HW1 8117   4.253   0.331   4.110  0.1595  0.0592  0.7857
 2041SOL    HW2 8118   4.227   0.410   4.236  2.1592  2.6730 -0.3533
 2042SOL     OW 8119   1.617   6.198   3.705  0.4465 -0.1418  0.2001
 2042SOL    HW1 8120   1.542   6.233   3.656 -1.7983 -2.7273  1.4918
 2042SOL    HW2 8121   1.614   6.104   3.687  2.1308 -0.5862  1.9906
 2043SOL     OW 8122   0.757   1.656   1.672 -0.0653 -0.1383 -0.4281
 2043SOL    HW1 8123   0.759   1.624   1.581 -0.7320  2.5840 -1.5015
 2043SOL    HW2 8124   0.665   1.680   1.686  0.5162  2.0157 -0.0394
 2044SOL     OW 8125   0.222   1.858   8.190 -0.4681 -0.9518 -0.4252
 2044SOL    HW1 8126   0.267   1.780   8.157 -0.3465 -1.6804  1.3640
 2044SOL    HW2 8127   0.152   1.824   8.245 -1.5909  0.2077 -1.0668
 2045SOL     OW 8128   8.107   8.692   5.071 -0.6291 -0.2125  0.1164
 2045SOL    HW1 8129   8.113   8.787   5.078 -0.0749 -0.2943  0.9760
 2045SOL    HW2 8130   8.055   8.666   5.147  1.6702 -0.8037  1.5918
 2046SOL     OW 8131   4.154   0.500   1.168  0.9983  0.0406 -0.2491
 2046SOL    HW1 8132   4.097   0.433   1.131 -0.2026  0.4586  0.7728
 2046SOL    HW2 8133   4.159   0.479   1.262  0.0196  1.7382  0.2280
 2047SOL     OW 8134   2.198   4.775   6.626  0.2953  0.1365 -0.5144
 2047SOL    HW1 8135   2.173   4.805   6.539  0.1706 -1.6456 -1.1422
 2047SOL    HW2 8136   2.267   4.835   6.654 -1.2882  2.1950 -0.7867
 2048SOL     OW 8137   2.745   5.909   0.256 -0.0407 -0.3477 -0.5020
 2048SOL    HW1 8138   2.835   5.890   0.230  0.4698  1.1144  0.1168
 2048SOL    HW2 8139   2.693   5.843   0.210  1.1668 -0.0809 -2.3690
 2049SOL     OW 8140   1.327   8.375   4.041 -0.2637 -0.0262 -0.1565
 2049SOL    HW1 8141   1.305   8.437   4.111 -2.5667 -0.5515 -0.3386
 2049SOL    HW2 8142   1.354   8.296   4.088 -0.7651 -0.0220  0.1597
 2050SOL     OW 8143   2.310   0.789   5.799  0.1622  0.9944 -0.0338
 2050SOL    HW1 8144   2.340   0.837   5.722 -1.3944 -0.4516 -1.6604
 2050SOL    HW2 8145   2.220   0.764   5.778  0.6717 -2.1083  0.8794
 2051SOL     OW 8146   5.826   7.672   5.948 -0.4455  0.3258  0.3178
 2051SOL    HW1 8147   5.881   7.735   5.900 -0.9890  0.5679 -0.0038
 2051SOL    HW2 8148   5.864   7.670   6.036 -0.9525  1.7917  0.6012
 2052SOL     OW 8149   0.761   2.188   7.629 -0.1549 -0.4621  0.3271
 2052SOL    HW1 8150   0.856   2.191   7.624 -0.1398  0.9987  0.9286
 2052SOL    HW2 8151   0.737   2.100   7.600  1.2923 -0.4296 -1.0446
 2053SOL     OW 8152   8.265   7.631   8.783 -0.2363 -0.4398  0.1665
 2053SOL    HW1 8153   8.273   7.600   8.693 -0.6717  0.5602 -0.2339
 2053SOL    HW2 8154   8.280   7.553   8.837 -1.2134 -1.3277 -0.7860
 2054SOL     OW 8155   3.701   2.333   1.037  0.3007  0.2778 -0.0293
 2054SOL    HW1 8156   3.783   2.357   0.993 -0.6182 -0.1548 -2.0907
 2054SOL    HW2 8157   3.686   2.242   1.012 -0.3068  0.0191  1.1778
 2055SOL     OW 8158   8.522   3.945   8.449 -0.4911  0.4730  0.3837
 2055SOL    HW1 8159   8.476   3.959   8.531  0.4066 -1.1229  1.1992
 2055SOL    HW2 8160   8.470   3.879   8.403  0.1596 -0.2377  0.6507
 2056SOL     OW 8161   4.228   7.607   1.180  0.4244  0.5121  0.2135
 2056SOL    HW1 8162   4.235   7.657   1.099  1.0178  0.4969  0.2477
 2056SOL    HW2 8163   4.316   7.570   1.193  1.3037  3.0687  2.4857
 2057SOL     OW 8164   6.679   1.860   0.225  0.1407  0.0316 -0.0367
 2057SOL    HW1 8165   6.631   1.834   0.304 -0.0824  1.2326  0.2467
 2057SOL    HW2 8166   6.644   1.946   0.204  2.1476  0.9422  0.1632
 2058SOL     OW 8167   5.797   0.669   8.824 -0.0884  0.2176 -0.2387
 2058SOL    HW1 8168   5.719   0.689   8.876  0.3057 -1.5571  1.1355
 2058SOL    HW2 8169   5.764   0.655   8.735 -0.8199  2.9663 -0.4775
 2059SOL     OW 8170   8.151   5.318   8.737  0.3859 -0.2463  0.2470
 2059SOL    HW1 8171   8.223   5.255   8.748  0.3725 -0.1109  1.2298
 2059SOL    HW2 8172   8.142   5.359   8.823  0.1916  0.8959 -0.2961
 2060SOL     OW 8173   1.878   1.082   4.965 -0.0417 -0.0076 -0.4865
 2060SOL    HW1 8174   1.914   1.005   4.922  1.7558  1.1845 -1.2513
 2060SOL    HW2 8175   1.788   1.058   4.986  0.2607 -2.0525 -1.2946
 2061SOL     OW 8176   6.015   3.739   2.869  0.0689 -0.4185 -0.3468
 2061SOL    HW1 8177   6.050   3.681   2.802 -1.3204 -1.8617  0.1067
 2061SOL    HW2 8178   5.927   3.762   2.838  0.6580  1.6613 -0.6171
 2062SOL     OW 8179   0.954   7.552   5.527 -0.4020  0.2261  0.1225
 2062SOL    HW1 8180   0.868   7.545   5.568 -0.5769 -0.9836 -0.4280
 2062SOL    HW2 8181   0.974   7.646   5.529 -1.9196  0.5716 -0.1542
 2063SOL     OW 8182   1.703   4.446   3.332  0.3243  0.8278 -0.6042
 2063SOL    HW1 8183   1.692   4.414   3.242  0.3840  0.0626 -0.3537
 2063SOL    HW2 8184   1.653   4.527   3.335  0.4243  0.9262 -1.3623
 2064SOL     OW 8185   6.465   6.033   5.531  0.4092 -0.4051 -0.1676
 2064SOL    HW1 8186   6.447   5.957   5.585  1.0755  0.1058  0.8099
 2064SOL    HW2 8187   6.497   6.099   5.593  0.0237  0.6062 -1.0111
 2065SOL     OW 8188   7.436   0.195   7.307  0.0624 -0.5000  0.3562
 2065SOL    HW1 8189   7.495   0.262   7.343 -0.6622  0.2511  0.1851
 2065SOL    HW2 8190   7.394   0.156   7.385 -0.9254  0.5852  0.4010
 2066SOL     OW 8191   0.622   4.859   2.856 -0.5655  0.2166 -0.2838
 2066SOL    HW1 8192   0.656   4.947   2.869 -1.5588  0.7475 -1.1672
 2066SOL    HW2 8193   0.630   4.843   2.762  0.5034 -1.0335 -0.0186
 2067SOL     OW 8194   0.848   4.000   8.318  0.5449  0.0869  0.2506
 2067SOL    HW1 8195   0.865   4.012   8.412 -1.1925  0.1260  0.5962
 2067SOL    HW2 8196   0.853   4.088   8.281 -0.7931  0.3831  0.7085
 2068SOL     OW 8197   8.579   4.240   2.192  0.2311 -0.3347 -0.1191
 2068SOL    HW1 8198   8.514   4.289   2.142  2.3040  2.2886 -0.4844
 2068SOL    HW2 8199   8.545   4.238   2.281 -2.2972 -2.8588 -0.9671
 2069SOL     OW 8200   2.619   0.969   8.737 -0.7086  0.4377  0.9125
 2069SOL    HW1 8201   2.681   1.024   8.690 -0.4784 -0.8333 -0.3389
 2069SOL    HW2 8202   2.535   0.984   8.694 -0.4470 -0.9275 -0.1504
 2070SOL     OW 8203   1.100   4.774   5.020 -0.2588 -0.3580 -0.0960
 2070SOL    HW1 8204   1.181   4.825   5.014 -0.6263  0.3032  0.3906
 2070SOL    HW2 8205   1.125   4.695   5.069  0.0457 -0.0540  0.2458
 2071SOL     OW 8206   5.100   3.453   4.969 -0.1678 -0.0239 -0.0836
 2071SOL    HW1 8207   5.022   3.462   4.914  0.4718  1.2660 -0.8159
 2071SOL    HW2 8208   5.168   3.500   4.921  1.2585 -1.7280  0.1918
 2072SOL     OW 8209   2.159   3.104   0.696 -0.3936 -0.0915 -0.1076
 2072SOL    HW1 8210   2.251   3.079   0.687  0.2769  2.5550 -2.2853
 2072SOL    HW2 8211   2.111   3.030   0.660  1.1560 -0.1354 -2.3312
 2073SOL     OW 8212   2.634   8.439   0.510 -0.1782  0.4834 -0.1472
 2073SOL    HW1 8213   2.719   8.470   0.544  2.0330 -4.6958 -0.0852
 2073SOL    HW2 8214   2.654   8.409   0.422 -1.4091 -2.3251  0.4264
 2074SOL     OW 8215   1.705   0.734   7.783 -0.2992 -0.0948  0.2048
 2074SOL    HW1 8216   1.646   0.802   7.751  0.5861  1.1731  1.1499
 2074SOL    HW2 8217   1.749   0.701   7.705 -0.8920  0.2799 -0.2893
 2075SOL     OW 8218   6.315   2.773   1.770  0.2206 -0.0504  0.2066
 2075SOL    HW1 8219   6.383   2.728   1.719  0.4562  0.3252  0.1853
 2075SOL    HW2 8220   6.240   2.778   1.711 -0.5496 -2.2538  0.8775
 2076SOL     OW 8221   0.459   8.160   4.179 -0.4200 -0.5685 -0.3326
 2076SOL    HW1 8222   0.434   8.198   4.095 -1.6045 -0.0869  0.2103
 2076SOL    HW2 8223   0.523   8.222   4.214  0.9892 -1.3850 -1.3784
 2077SOL     OW 8224   2.026   7.771   4.887  0.4612 -0.3181 -0.2637
 2077SOL    HW1 8225   2.031   7.688   4.935 -1.1975  0.3575  1.2134
 2077SOL    HW2 8226   1.973   7.827   4.943  3.1859  2.4576 -0.2372
 2078SOL     OW 8227   1.172   3.178   6.742  0.3207 -0.8704  0.2852
 2078SOL    HW1 8228   1.241   3.244   6.737  0.2066 -0.7592  0.1692
 2078SOL    HW2 8229   1.219   3.094   6.745  0.4475 -0.8540 -0.8091
 2079SOL     OW 8230   2.260   5.780   8.354  0.1367  0.2195  0.0946
 2079SOL    HW1 8231   2.228   5.844   8.417 -0.4283  0.0338 -0.0041
 2079SOL    HW2 8232   2.182   5.751   8.306  0.5768  0.5256 -0.8414
 2080SOL     OW 8233   8.864   8.270   0.011 -0.0520  0.1659  0.0469
 2080SOL    HW1 8234   8.867   8.347   0.068 -1.7720  0.3826 -0.0924
 2080SOL    HW2 8235   8.866   8.306  -0.077  1.5598 -0.1154 -0.0577
 2081SOL     OW 8236   5.697   3.230   2.107 -0.2004  0.1008 -0.0533
 2081SOL    HW1 8237   5.761   3.230   2.178 -0.3491  5.2636  0.4329
 2081SOL    HW2 8238   5.747   3.257   2.030 -0.4941 -3.3230 -1.6489
 2082SOL     OW 8239   8.044   0.668   5.724  0.0101 -0.1230  0.6294
 2082SOL    HW1 8240   8.098   0.747   5.730 -1.9434  1.2001  1.9439
 2082SOL    HW2 8241   8.024   0.646   5.815  0.8263 -2.4085  0.3085
 2083SOL     OW 8242   4.016   2.573   7.087 -0.1681  0.4554  0.4594
 2083SOL    HW1 8243   4.030   2.547   7.178  0.0122 -0.6775  0.1348
 2083SOL    HW2 8244   3.943   2.518   7.057 -0.5437  1.1633  0.0644
 2084SOL     OW 8245   4.928   3.917   3.336  0.3746 -0.0891  0.3925
 2084SOL    HW1 8246   4.960   3.893   3.249 -4.0573 -0.9043 -1.2972
 2084SOL    HW2 8247   4.909   3.833   3.377 -0.4280  0.3276  0.8851
 2085SOL     OW 8248   5.223   3.970   2.207 -0.9024  0.4026 -0.1507
 2085SOL    HW1 8249   5.266   4.016   2.135 -0.2643  0.2600  0.1352
 2085SOL    HW2 8250   5.221   4.034   2.278  2.2587 -0.7320  1.1025
 2086SOL     OW 8251   4.036   5.038   1.853 -0.1873  0.5432  0.4455
 2086SOL    HW1 8252   4.110   5.084   1.891  0.7702 -0.2977 -0.3633
 2086SOL    HW2 8253   4.022   5.082   1.768  0.2613 -0.1716 -0.0031
 2087SOL     OW 8254   1.759   6.044   8.489  0.2739  0.0291 -0.0993
 2087SOL    HW1 8255   1.854   6.052   8.492  0.4160 -1.0106 -0.8721
 2087SOL    HW2 8256   1.739   6.043   8.395 -0.7195  2.2017  0.0344
 2088SOL     OW 8257   0.082   0.570   5.949  0.6997  0.0700  0.4665
 2088SOL    HW1 8258   0.074   0.478   5.973 -2.0803  0.0171 -0.3533
 2088SOL    HW2 8259   0.052   0.574   5.859 -0.1278  1.8934  0.7742
 2089SOL     OW 8260   8.178   3.967   3.785 -0.6045  0.3630  0.0816
 2089SOL    HW1 8261   8.102   3.977   3.843 -1.1170  0.7720 -0.6372
 2089SOL    HW2 8262   8.253   3.959   3.844 -1.0931  0.9330  0.7975
 2090SOL     OW 8263   6.140   5.817   1.583 -0.2406  0.0297  0.6914
 2090SOL    HW1 8264   6.058   5.828   1.632 -0.9060  0.5904 -0.4874
 2090SOL    HW2 8265   6.142   5.724   1.560 -1.6461  0.3765 -1.0458
 2091SOL     OW 8266   1.103   1.217   2.355 -0.3718 -0.0145 -0.4386
 2091SOL    HW1 8267   1.137   1.128   2.349 -0.5628 -0.0295 -1.4988
 2091SOL    HW2 8268   1.159   1.260   2.419  0.7502 -0.4417 -1.1000
 2092SOL     OW 8269   3.757   4.841   3.704  0.3604 -0.2484  0.2615
 2092SOL    HW1 8270   3.784   4.879   3.620  0.8487 -0.2549  0.4121
 2092SOL    HW2 8271   3.737   4.917   3.759  0.1541 -0.2404  0.1734
 2093SOL     OW 8272   2.470   7.703   8.158  0.3424  0.1855  0.1553
 2093SOL    HW1 8273   2.492   7.652   8.236  1.4482  0.3161 -0.0584
 2093SOL    HW2 8274   2.428   7.782   8.192  2.4160  1.0886  0.7747
 2094SOL     OW 8275   0.201   0.043   4.622  0.0564 -0.1109 -0.0297
 2094SOL    HW1 8276   0.292   0.040   4.593 -0.0560 -2.7985 -0.3649
 2094SOL    HW2 8277   0.150   0.033   4.541 -0.4384 -0.9598  0.3697
 2095SOL     OW 8278   1.112   1.680   0.094  0.0929 -0.1081  0.1122
 2095SOL    HW1 8279   1.077   1.769   0.096 -0.4897 -0.3067 -0.8001
 2095SOL    HW2 8280   1.063   1.632   0.160  0.6480  0.3250  0.8513
 2096SOL     OW 8281   6.695   5.818   7.778  0.7697 -0.6939  0.4257
 2096SOL    HW1 8282   6.599   5.813   7.779  0.8358 -2.0142  0.8432
 2096SOL    HW2 8283   6.720   5.782   7.693  0.8353  1.8514 -0.7538
 2097SOL     OW 8284   2.542   5.250   3.237  0.1259  0.0535 -0.5834
 2097SOL    HW1 8285   2.637   5.241   3.244  0.0264  0.1337  2.5908
 2097SOL    HW2 8286   2.512   5.162   3.212  0.9683 -0.2598 -0.5372
 2098SOL     OW 8287   5.595   7.925   6.105 -0.1302 -0.0256 -0.5451
 2098SOL    HW1 8288   5.517   7.978   6.123  0.2360  0.4797 -0.4375
 2098SOL    HW2 8289   5.617   7.944   6.014  0.9707  1.3012 -0.0368
 2099SOL     OW 8290   8.700   8.785   2.294  0.0029  0.1385  0.3403
 2099SOL    HW1 8291   8.700   8.780   2.389  2.8117  0.0839  0.4021
 2099SOL    HW2 8292   8.762   8.719   2.266  1.4555  2.0860 -1.3468
 2100SOL     OW 8293   3.564   4.101   1.621  0.3495 -0.1543  0.0490
 2100SOL    HW1 8294   3.530   4.027   1.571 -0.0145 -0.6690  1.0384
 2100SOL    HW2 8295   3.654   4.077   1.642  1.0872  0.7984 -1.7574
 2101SOL     OW 8296   5.233   3.189   6.095 -0.1083 -0.2992 -0.0837
 2101SOL    HW1 8297   5.250   3.245   6.171  1.2969 -0.9543  0.1282
 2101SOL    HW2 8298   5.169   3.237   6.043 -0.5267  0.5129  1.1360
 2102SOL     OW 8299   2.523   7.084   7.152 -0.1390 -0.3550  0.1102
 2102SOL    HW1 8300   2.590   7.067   7.218 -0.1138  1.1273  0.5020
 2102SOL    HW2 8301   2.458   7.139   7.197  0.1599  1.1583 -1.2020
 2103SOL     OW 8302   3.391   5.846   4.951  0.0292 -0.0587 -0.3419
 2103SOL    HW1 8303   3.451   5.771   4.942 -0.6878 -0.7443  0.4427
 2103SOL    HW2 8304   3.311   5.818   4.906 -0.0160  0.5078 -0.6209
 2104SOL     OW 8305   2.550   5.466   5.989  0.2504  0.2141 -0.8383
 2104SOL    HW1 8306   2.599   5.472   6.071  1.8130  0.4517 -1.7454
 2104SOL    HW2 8307   2.533   5.373   5.977 -0.5263  0.2299  0.0370
 2105SOL     OW 8308   5.629   7.860   8.570 -0.1003 -0.2784 -0.2046
 2105SOL    HW1 8309   5.636   7.846   8.664  0.5277  1.5700  0.0680
 2105SOL    HW2 8310   5.563   7.929   8.561  0.5460  0.2380 -1.0506
 2106SOL     OW 8311   6.514   6.413   1.362  0.0777 -0.5780  0.4543
 2106SOL    HW1 8312   6.532   6.350   1.432  0.8147 -1.6303 -0.6325
 2106SOL    HW2 8313   6.591   6.470   1.361 -0.6938  0.5302  1.5929
 2107SOL     OW 8314   4.267   8.030   4.119  0.3390  0.7280 -0.3401
 2107SOL    HW1 8315   4.345   8.081   4.097  0.9139  0.2263  0.4627
 2107SOL    HW2 8316   4.258   8.040   4.214  1.2209 -1.6600  0.0570
 2108SOL     OW 8317   2.774   2.207   2.550 -0.3979 -0.5660  0.0896
 2108SOL    HW1 8318   2.850   2.165   2.509 -0.1113 -0.7437  0.7741
 2108SOL    HW2 8319   2.807   2.238   2.635 -1.5586 -2.4835  1.3416
 2109SOL     OW 8320   7.035   7.986   7.589  0.1958 -0.4712 -0.3193
 2109SOL    HW1 8321   6.945   8.017   7.601  0.5654  0.1521  1.1392
 2109SOL    HW2 8322   7.029   7.891   7.597 -0.2850 -0.4032  0.2781
 2110SOL     OW 8323   5.587   4.216   6.233  0.8472 -0.1637  0.0950
 2110SOL    HW1 8324   5.527   4.188   6.301 -1.0405 -0.0137 -1.4228
 2110SOL    HW2 8325   5.633   4.137   6.205  2.1887 -0.1103  1.9615
 2111SOL     OW 8326   6.419   6.035   1.329  0.0326  0.1637 -0.2905
 2111SOL    HW1 8327   6.451   5.949   1.300  0.6016  0.7165 -1.3500
 2111SOL    HW2 8328   6.457   6.097   1.267  0.8212  1.3522  1.3090
 2112SOL     OW 8329   0.394   7.925   5.854 -0.1799  0.1729  0.0914
 2112SOL    HW1 8330   0.358   7.949   5.769 -0.1595  1.4325  0.4178
 2112SOL    HW2 8331   0.483   7.895   5.834 -0.5014 -0.4762 -0.4237
 2113SOL     OW 8332   0.957   7.142   0.861 -0.6372  0.3552  0.1066
 2113SOL    HW1 8333   1.051   7.157   0.859 -0.5556  0.3990  2.0638
 2113SOL    HW2 8334   0.947   7.056   0.901 -1.4284  0.1518 -0.4931
 2114SOL     OW 8335   8.568   7.244   5.646 -0.4844 -0.1358 -0.3638
 2114SOL    HW1 8336   8.579   7.330   5.688  0.2687 -0.5534  0.3194
 2114SOL    HW2 8337   8.601   7.182   5.710  1.7926 -0.7135 -1.9803
 2115SOL     OW 8338   6.673   7.051   1.122 -0.1909  0.0732 -0.7305
 2115SOL    HW1 8339   6.653   7.069   1.214  0.4793  1.0583 -0.7582
 2115SOL    HW2 8340   6.658   6.957   1.112 -1.7474  0.2046 -0.0054
 2116SOL     OW 8341   3.189   5.991   2.696 -0.4292 -0.9060  0.4360
 2116SOL    HW1 8342   3.268   6.043   2.711 -0.1015 -1.1079 -0.5537
 2116SOL    HW2 8343   3.219   5.900   2.698 -0.9883 -1.0917  2.0731
 2117SOL     OW 8344   1.797   1.580   1.608  0.3257  0.0631  0.1105
 2117SOL    HW1 8345   1.886   1.590   1.643  0.9416  0.0675 -1.4172
 2117SOL    HW2 8346   1.742   1.567   1.686  1.5607  0.7321  1.1258
 2118SOL     OW 8347   2.798   3.310   6.141  0.2823 -0.7902 -0.4791
 2118SOL    HW1 8348   2.740   3.237   6.121  0.3432 -1.0274  0.1979
 2118SOL    HW2 8349   2.880   3.268   6.167  0.1838 -0.4921  0.3284
 2119SOL     OW 8350   6.042   6.224   8.675 -0.7874  0.1974 -0.0914
 2119SOL    HW1 8351   6.082   6.211   8.589  1.3979  0.0190  0.8932
 2119SOL    HW2 8352   6.032   6.319   8.682 -1.2850  0.1930 -0.6580
 2120SOL     OW 8353   1.739   6.700   1.128 -0.2538  0.5715  0.0898
 2120SOL    HW1 8354   1.651   6.665   1.142 -0.0442 -0.9614 -1.8821
 2120SOL    HW2 8355   1.727   6.768   1.061 -0.0016  0.6318  0.1055
 2121SOL     OW 8356   5.010   2.044   4.360 -0.0649  0.4440  1.0267
 2121SOL    HW1 8357   4.983   1.954   4.341 -1.7098  0.8175  1.4009
 2121SOL    HW2 8358   4.957   2.098   4.302  0.4987  1.2053  1.2034
 2122SOL     OW 8359   0.729   0.594   5.294 -0.0410  0.0671 -0.1283
 2122SOL    HW1 8360   0.674   0.669   5.315  0.6704  0.5261  0.1112
 2122SOL    HW2 8361   0.787   0.584   5.370  0.3234 -0.3101 -0.4475
 2123SOL     OW 8362   6.518   2.414   0.578 -0.3785  0.2417 -0.0951
 2123SOL    HW1 8363   6.517   2.416   0.674 -2.0687 -0.4585 -0.0809
 2123SOL    HW2 8364   6.540   2.504   0.553 -1.8551  0.9320  0.9538
 2124SOL     OW 8365   1.736   5.945   4.436 -0.3329  0.6748 -0.0635
 2124SOL    HW1 8366   1.653   5.922   4.478 -0.1194  0.7463  0.4002
 2124SOL    HW2 8367   1.790   5.867   4.444 -0.2925  0.6877 -0.2079
 2125SOL     OW 8368   0.961   0.207   0.400  0.1011  0.1009  0.1747
 2125SOL    HW1 8369   0.967   0.241   0.489 -1.9185  1.3377 -0.0797
 2125SOL    HW2 8370   0.951   0.285   0.345 -1.5456 -0.7285 -0.7874
 2126SOL     OW 8371   2.908   4.818   7.744  0.1617  0.5450 -0.8044
 2126SOL    HW1 8372   2.972   4.759   7.783  0.8155  1.9989  0.4398
 2126SOL    HW2 8373   2.827   4.802   7.792  0.3913  0.7861 -0.3315
 2127SOL     OW 8374   4.036   8.713   4.713  0.8590  0.6518 -0.3898
 2127SOL    HW1 8375   4.114   8.659   4.698 -0.0258  0.0052 -3.3980
 2127SOL    HW2 8376   4.058   8.797   4.673  0.5348  0.9761  0.1106
 2128SOL     OW 8377   1.622   1.170   7.954  0.1115 -0.1613  0.1431
 2128SOL    HW1 8378   1.553   1.105   7.939 -1.3558  1.5236 -0.8692
 2128SOL    HW2 8379   1.598   1.212   8.037  0.5624 -0.3054  0.3506
 2129SOL     OW 8380   5.758   4.624   8.199 -0.4258  0.4815  0.3978
 2129SOL    HW1 8381   5.826   4.583   8.252 -0.5894 -0.5445 -0.1702
 2129SOL    HW2 8382   5.676   4.599   8.240 -0.5234  0.3538  0.1246
 2130SOL     OW 8383   8.008   5.453   7.020 -0.5481 -0.3526  0.0626
 2130SOL    HW1 8384   8.102   5.467   7.030 -0.8108  0.6063  1.4331
 2130SOL    HW2 8385   8.001   5.372   6.969  1.0052 -0.7443  0.4126
 2131SOL     OW 8386   0.057   1.922   6.798 -0.3422 -0.1713  0.4226
 2131SOL    HW1 8387   0.078   1.953   6.710  0.5323  0.2473  0.7615
 2131SOL    HW2 8388   0.052   1.826   6.790  0.1868 -0.1665  0.0044
 2132SOL     OW 8389   1.219   8.068   3.611  0.5627 -0.2140 -0.0825
 2132SOL    HW1 8390   1.169   8.005   3.662  0.7225 -1.2116 -1.1246
 2132SOL    HW2 8391   1.310   8.049   3.632  0.6982 -1.4366 -1.5866
 2133SOL     OW 8392   6.736   8.320   0.847 -0.7907  0.5049  0.0208
 2133SOL    HW1 8393   6.723   8.375   0.769 -1.4858  0.6373  0.2189
 2133SOL    HW2 8394   6.707   8.374   0.920  2.9350  1.6581  0.8537
 2134SOL     OW 8395   5.552   2.580   8.257  0.1309  0.3341 -0.2748
 2134SOL    HW1 8396   5.479   2.520   8.274  0.5524 -0.4714 -1.1899
 2134SOL    HW2 8397   5.517   2.667   8.275 -0.9368 -0.0725 -0.3349
 2135SOL     OW 8398   6.174   2.072   1.687  0.1917  0.1474  0.4136
 2135SOL    HW1 8399   6.164   1.977   1.687 -0.5572  0.2081 -0.2336
 2135SOL    HW2 8400   6.120   2.101   1.614 -0.3743  1.1509  1.2048
 2136SOL     OW 8401   6.581   2.350   2.195 -0.2452  0.1774 -0.2835
 2136SOL    HW1 8402   6.658   2.342   2.252  0.0321  0.9868 -0.5274
 2136SOL    HW2 8403   6.558   2.443   2.199 -0.6346  0.1144 -0.9519
 2137SOL     OW 8404   1.414   2.917   0.201  0.0039 -0.1623  0.1480
 2137SOL    HW1 8405   1.410   3.006   0.164  1.0023 -0.3240 -0.3749
 2137SOL    HW2 8406   1.348   2.868   0.152  0.9982 -0.2566 -1.1397
 2138SOL     OW 8407   6.701   0.405   0.644  0.1859 -0.3612  0.1013
 2138SOL    HW1 8408   6.738   0.471   0.586 -0.7095  0.7239  0.7306
 2138SOL    HW2 8409   6.696   0.447   0.730 -0.0003 -1.3932  0.6193
 2139SOL     OW 8410   8.767   3.375   3.045  0.1610  0.0092 -0.6713
 2139SOL    HW1 8411   8.853   3.378   3.087 -0.8464  0.8633  1.4575
 2139SOL    HW2 8412   8.711   3.331   3.109 -1.4864  1.4892 -1.0458
 2140SOL     OW 8413   8.228   6.746   3.231 -0.0973  0.1090 -0.4508
 2140SOL    HW1 8414   8.190   6.833   3.221 -2.5576 -0.7972  0.4216
 2140SOL    HW2 8415   8.261   6.745   3.321  0.6872  0.3767 -0.7221
 2141SOL     OW 8416   8.876   7.594   2.862 -0.7454  0.7006  0.0545
 2141SOL    HW1 8417   8.875   7.607   2.767 -0.4589 -0.6511 -0.1529
 2141SOL    HW2 8418   8.968   7.578   2.883 -0.8311  0.8530  0.5518
 2142SOL     OW 8419   7.345   2.556   4.845 -0.7924 -0.2665  0.0264
 2142SOL    HW1 8420   7.308   2.470   4.865  1.2516 -1.6091 -1.5611
 2142SOL    HW2 8421   7.368   2.551   4.752  1.6249  1.0827  0.4716
 2143SOL     OW 8422   1.570   1.716   5.715  0.2337 -0.8093  0.5274
 2143SOL    HW1 8423   1.611   1.697   5.631  0.5129  1.7269  0.0255
 2143SOL    HW2 8424   1.497   1.774   5.693 -0.7125 -1.4525  1.8825
 2144SOL     OW 8425   8.403   0.278   5.760  0.1423 -0.1883  0.0913
 2144SOL    HW1 8426   8.444   0.223   5.693 -1.8013 -0.7125 -0.7189
 2144SOL    HW2 8427   8.356   0.217   5.816 -1.2738  0.5485 -0.2586
 2145SOL     OW 8428   3.749   2.519   7.898 -0.4067  0.1103  0.2265
 2145SOL    HW1 8429   3.789   2.604   7.917 -1.2511  0.4907  0.3700
 2145SOL    HW2 8430   3.782   2.461   7.966  0.8957  0.0751 -0.3965
 2146SOL     OW 8431   3.259   1.486   3.966 -0.0372  0.3115 -0.0001
 2146SOL    HW1 8432   3.203   1.564   3.962 -1.5265 -0.6601  0.7191
 2146SOL    HW2 8433   3.246   1.443   3.882 -0.8738 -0.2155  0.3839
 2147SOL     OW 8434   4.295   3.141   6.431  0.2542 -0.2568  0.3602
 2147SOL    HW1 8435   4.300   3.159   6.524 -0.5757 -1.3639  0.6382
 2147SOL    HW2 8436   4.335   3.217   6.389 -1.3611  1.3290  1.5339
 2148SOL     OW 8437   5.948   1.515   8.374  0.2448 -0.2640  0.0147
 2148SOL    HW1 8438   5.981   1.471   8.452  1.4252 -2.2700 -1.5461
 2148SOL    HW2 8439   5.854   1.526   8.391  0.8303  1.7535  2.7560
 2149SOL     OW 8440   5.296   5.696   1.187 -0.7112  0.1372  0.1970
 2149SOL    HW1 8441   5.343   5.775   1.159  0.5894 -1.1592 -1.4229
 2149SOL    HW2 8442   5.359   5.625   1.176 -2.7800 -1.5794 -1.3200
 2150SOL     OW 8443   0.661   6.467   6.536 -0.2853 -0.2651 -0.1775
 2150SOL    HW1 8444   0.624   6.385   6.567  0.9984 -0.3576  1.2321
 2150SOL    HW2 8445   0.654   6.462   6.441 -1.5546 -1.3380 -0.0542
 2151SOL     OW 8446   2.798   4.499   5.454  0.0551 -0.4562  0.1536
 2151SOL    HW1 8447   2.825   4.420   5.500  1.8927  1.5337  2.7959
 2151SOL    HW2 8448   2.703   4.494   5.451  0.1280 -2.9300 -0.2393
 2152SOL     OW 8449   4.431   8.230   1.397  0.5105  0.0830 -0.4228
 2152SOL    HW1 8450   4.473   8.283   1.466  0.5256  0.1273 -0.4657
 2152SOL    HW2 8451   4.372   8.172   1.444  0.0917  0.5109 -0.4126
 2153SOL     OW 8452   5.395   2.599   0.491  0.1332  0.0519 -0.7376
 2153SOL    HW1 8453   5.379   2.535   0.422  0.3613 -0.4891 -0.3005
 2153SOL    HW2 8454   5.312   2.603   0.540  0.4438 -0.7116 -0.1255
 2154SOL     OW 8455   1.157   7.273   4.129  0.2704  0.0041  0.2960
 2154SOL    HW1 8456   1.235   7.247   4.178  0.4344 -1.7325 -0.7909
 2154SOL    HW2 8457   1.085   7.257   4.189  0.6639  0.6554  0.9578
 2155SOL     OW 8458   5.050   8.488   1.370  0.2822 -0.4241 -0.1614
 2155SOL    HW1 8459   5.076   8.524   1.285  0.2329 -0.1699 -0.0704
 2155SOL    HW2 8460   4.996   8.412   1.349 -1.0044  0.5200 -0.3788
 2156SOL     OW 8461   5.284   1.528   6.773 -0.2692  0.2861 -0.2509
 2156SOL    HW1 8462   5.358   1.533   6.833  0.3024 -0.8672 -0.8136
 2156SOL    HW2 8463   5.286   1.610   6.724  0.6044  0.2974 -0.2047
 2157SOL     OW 8464   4.871   3.474   6.838  0.0797  0.8223  0.3854
 2157SOL    HW1 8465   4.946   3.499   6.784 -0.7406 -0.0368 -1.2157
 2157SOL    HW2 8466   4.900   3.396   6.885  0.5641  1.1590  0.6487
 2158SOL     OW 8467   8.308   5.775   1.785 -0.3798 -0.4114  0.9209
 2158SOL    HW1 8468   8.341   5.700   1.834 -1.2901 -1.5184 -0.0935
 2158SOL    HW2 8469   8.244   5.816   1.844 -0.9353 -1.3013  0.9480
 2159SOL     OW 8470   7.519   6.175   2.971 -0.1805  0.0092  0.7055
 2159SOL    HW1 8471   7.454   6.105   2.973 -1.5768  1.1548 -0.7873
 2159SOL    HW2 8472   7.467   6.254   2.955  1.6531  0.6987 -3.1576
 2160SOL     OW 8473   0.611   7.423   5.956 -0.0189  0.1258 -0.2641
 2160SOL    HW1 8474   0.656   7.470   6.026 -1.4508  0.2795  0.5981
 2160SOL    HW2 8475   0.677   7.410   5.888  0.7906  2.0796  0.1013
 2161SOL     OW 8476   7.716   0.239   8.053  0.0457  0.1335  0.2398
 2161SOL    HW1 8477   7.644   0.195   8.006  0.4967 -1.4242  0.9633
 2161SOL    HW2 8478   7.672   0.303   8.109 -1.5108 -4.1525  4.6365
 2162SOL     OW 8479   1.534   1.440   3.326  0.2328 -0.2815 -0.0106
 2162SOL    HW1 8480   1.512   1.533   3.329  0.3821 -0.2826  2.1970
 2162SOL    HW2 8481   1.460   1.396   3.367  1.6963 -0.7744  2.2696
 2163SOL     OW 8482   2.594   0.785   1.885  0.2861  0.5458 -0.1031
 2163SOL    HW1 8483   2.540   0.771   1.807  0.9090 -0.4919 -0.3535
 2163SOL    HW2 8484   2.606   0.880   1.888 -0.2061  0.6464 -0.9539
 2164SOL     OW 8485   6.874   7.513   8.370  0.4033 -0.0664 -0.0093
 2164SOL    HW1 8486   6.866   7.432   8.420 -2.1196 -0.0297 -0.2473
 2164SOL    HW2 8487   6.787   7.527   8.333  1.3890  1.5339 -1.8993
 2165SOL     OW 8488   5.176   4.807   6.361  0.1102 -0.4175 -0.2014
 2165SOL    HW1 8489   5.230   4.740   6.403 -1.4391 -1.3708  0.4014
 2165SOL    HW2 8490   5.123   4.758   6.297 -1.0425  0.2028  0.2416
 2166SOL     OW 8491   6.742   1.438   7.533  0.3193 -0.0598  0.3865
 2166SOL    HW1 8492   6.833   1.463   7.515  0.1535 -0.8502 -1.8842
 2166SOL    HW2 8493   6.692   1.518   7.517  0.2757 -0.5153 -2.3224
 2167SOL     OW 8494   6.119   7.159   3.393 -0.1073 -0.9797 -0.2053
 2167SOL    HW1 8495   6.175   7.093   3.435  0.3586 -0.3478  0.1891
 2167SOL    HW2 8496   6.129   7.237   3.448  0.2898 -0.2178 -1.3234
 2168SOL     OW 8497   2.441   1.221   7.813 -0.1818  0.5743  0.0877
 2168SOL    HW1 8498   2.360   1.180   7.784  0.4265 -0.2543 -0.4884
 2168SOL    HW2 8499   2.437   1.310   7.778 -0.8099  0.5178  0.0111
 2169SOL     OW 8500   6.809   5.850   8.767  0.0094 -0.0989  0.1768
 2169SOL    HW1 8501   6.807   5.815   8.678 -1.2395 -0.5955  0.3749
 2169SOL    HW2 8502   6.775   5.779   8.821  0.0547  0.4611  0.9595
 2170SOL     OW 8503   6.426   1.254   8.746 -0.2128 -0.8798 -0.0848
 2170SOL    HW1 8504   6.349   1.307   8.727 -0.1172 -0.5275  0.4601
 2170SOL    HW2 8505   6.489   1.276   8.677 -0.5029 -0.9673 -0.3786
 2171SOL     OW 8506   7.279   0.620   7.654  0.3435  0.0628 -0.4221
 2171SOL    HW1 8507   7.285   0.581   7.567 -0.1183  0.4085 -0.6089
 2171SOL    HW2 8508   7.303   0.712   7.642  1.5427 -0.1670  0.0383
 2172SOL     OW 8509   7.334   4.589   5.594  0.5113  0.1853  0.3554
 2172SOL    HW1 8510   7.272   4.530   5.553  0.4676  0.7824 -0.4674
 2172SOL    HW2 8511   7.400   4.532   5.634  0.0480 -0.4206  0.2539
 2173SOL     OW 8512   1.464   3.809   5.205 -0.0261 -0.3576 -0.0881
 2173SOL    HW1 8513   1.376   3.773   5.217 -0.2186  0.2429  0.3514
 2173SOL    HW2 8514   1.455   3.873   5.135 -0.4683  1.4095  1.4969
 2174SOL     OW 8515   8.708   6.536   3.909 -0.4181 -0.1760 -0.4712
 2174SOL    HW1 8516   8.744   6.447   3.921  1.1842  0.3017 -1.3893
 2174SOL    HW2 8517   8.697   6.545   3.814 -1.9258  0.1285 -0.2877
 2175SOL     OW 8518   2.215   0.649   0.008 -0.3797 -0.0117 -0.0861
 2175SOL    HW1 8519   2.150   0.709  -0.030  0.5723 -0.0792 -1.9704
 2175SOL    HW2 8520   2.214   0.573  -0.050 -0.2910 -1.0730  1.2557
 2176SOL     OW 8521   6.213   7.573   7.106  0.4613  0.2935  0.2233
 2176SOL    HW1 8522   6.285   7.559   7.167  0.7331  1.5212  0.2186
 2176SOL    HW2 8523   6.255   7.597   7.023  0.0990 -1.3239 -0.4728
 2177SOL     OW 8524   3.309   6.450   0.458 -0.0114  0.0281 -0.1955
 2177SOL    HW1 8525   3.242   6.514   0.478  0.6065  0.9275 -0.9154
 2177SOL    HW2 8526   3.384   6.475   0.512  0.6930  0.7597 -1.4631
 2178SOL     OW 8527   4.012   7.675   3.918  0.6086 -0.7468 -0.0914
 2178SOL    HW1 8528   3.969   7.647   3.837 -1.8875 -0.9755  1.2402
 2178SOL    HW2 8529   4.084   7.612   3.929  0.2931 -1.4011 -1.5243
 2179SOL     OW 8530   8.508   5.285   2.167 -0.3751  0.0599  0.0922
 2179SOL    HW1 8531   8.495   5.232   2.245  1.6740 -0.7108 -0.0173
 2179SOL    HW2 8532   8.498   5.224   2.094 -1.0247  0.5017 -0.2008
 2180SOL     OW 8533   6.593   2.298   1.566 -0.3049 -0.6768 -0.1127
 2180SOL    HW1 8534   6.507   2.338   1.549  0.5995  0.4715 -2.5321
 2180SOL    HW2 8535   6.636   2.298   1.480  1.8599 -1.8752  0.8971
 2181SOL     OW 8536   0.945   3.026   1.318 -0.1192 -0.2487 -0.1876
 2181SOL    HW1 8537   0.863   3.056   1.358  0.3612 -0.1710  0.7699
 2181SOL    HW2 8538   0.946   3.066   1.231  0.2352  2.1229  0.8245
 2182SOL     OW 8539   3.763   8.852   1.012 -0.2640  0.2206 -0.1774
 2182SOL    HW1 8540   3.723   8.823   0.930  1.0613 -0.6508 -0.5514
 2182SOL    HW2 8541   3.852   8.877   0.988  0.3980 -0.7843  1.1005
 2183SOL     OW 8542   7.863   7.198   7.252 -0.3996 -0.1100  0.1730
 2183SOL    HW1 8543   7.957   7.216   7.252 -0.2781 -0.5104  1.9489
 2183SOL    HW2 8544   7.830   7.246   7.328 -1.4122 -0.9984  0.3185
 2184SOL     OW 8545   7.135   0.005   2.417 -0.5451  0.2442 -0.0771
 2184SOL    HW1 8546   7.071   0.068   2.385 -0.3572  0.2992 -0.3595
 2184SOL    HW2 8547   7.199   0.058   2.465 -0.8824  0.1484  0.4743
 2185SOL     OW 8548   3.326   3.012   8.809  0.6641  0.2672  0.1298
 2185SOL    HW1 8549   3.357   3.089   8.763  0.7271 -0.1884 -0.6028
 2185SOL    HW2 8550   3.276   3.046   8.883 -0.7755  1.0112 -1.1497
 2186SOL     OW 8551   6.171   8.708   4.820 -0.5537 -0.2600 -0.2651
 2186SOL    HW1 8552   6.195   8.797   4.847  0.9564 -0.2378 -1.5518
 2186SOL    HW2 8553   6.238   8.652   4.858 -1.2012 -0.8033  0.0932
 2187SOL     OW 8554   0.486   2.397   1.535  0.0570  0.1362 -0.0446
 2187SOL    HW1 8555   0.465   2.317   1.584  0.6142 -0.9851 -1.5502
 2187SOL    HW2 8556   0.564   2.375   1.485 -0.1188  1.4418 -0.9507
 2188SOL     OW 8557   0.802   3.215   4.783  0.3969  0.1287  0.1865
 2188SOL    HW1 8558   0.738   3.238   4.851 -0.5775 -1.0435 -0.3031
 2188SOL    HW2 8559   0.875   3.275   4.798 -0.7697  1.4366  0.8209
 2189SOL     OW 8560   1.832   8.563   8.570 -0.2073 -0.7991  0.2147
 2189SOL    HW1 8561   1.781   8.639   8.541 -0.5584 -2.3067 -3.7019
 2189SOL    HW2 8562   1.920   8.598   8.586 -0.4063  0.5138 -1.3368
 2190SOL     OW 8563   7.532   1.767   4.596  0.4071  0.4536  0.2080
 2190SOL    HW1 8564   7.571   1.697   4.648  0.4668 -2.3125 -3.2178
 2190SOL    HW2 8565   7.437   1.756   4.609  0.3454 -1.1902 -1.1870
 2191SOL     OW 8566   2.539   5.583   0.458 -0.2099  0.5545  0.3152
 2191SOL    HW1 8567   2.567   5.548   0.543  2.3499 -2.8067 -1.6504
 2191SOL    HW2 8568   2.616   5.627   0.423 -0.2180 -0.7307 -1.4430
 2192SOL     OW 8569   6.789   1.379   6.602 -0.3791 -0.3113  0.2406
 2192SOL    HW1 8570   6.743   1.295   6.593 -1.3429  0.4027 -2.4423
 2192SOL    HW2 8571   6.743   1.438   6.543  2.0775  1.3269 -0.1997
 2193SOL     OW 8572   4.054   1.721   3.069 -0.0023  0.1890 -0.1856
 2193SOL    HW1 8573   4.079   1.688   2.983 -1.2328 -3.0511  0.5563
 2193SOL    HW2 8574   4.058   1.645   3.126 -0.8073  1.8828  2.2965
 2194SOL     OW 8575   1.511   5.288   4.957  0.0024 -0.0194  0.1941
 2194SOL    HW1 8576   1.594   5.248   4.981  0.5831  1.4853  0.8327
 2194SOL    HW2 8577   1.456   5.280   5.035  0.4593  1.2323  0.6698
 2195SOL     OW 8578   8.851   6.795   2.729  0.2345  0.0723 -0.3967
 2195SOL    HW1 8579   8.870   6.811   2.821  0.7875  1.9834 -0.7949
 2195SOL    HW2 8580   8.936   6.795   2.686  0.1820 -2.7834 -0.7123
 2196SOL     OW 8581   3.318   3.453   8.233  0.2524 -0.4570  0.2896
 2196SOL    HW1 8582   3.399   3.429   8.278  1.3142  2.6010  0.2642
 2196SOL    HW2 8583   3.341   3.451   8.140  0.4936  0.8722  0.3029
 2197SOL     OW 8584   4.406   1.030   6.024  0.3648  0.1527  0.0008
 2197SOL    HW1 8585   4.432   1.102   6.083  1.4561  1.7996 -2.3345
 2197SOL    HW2 8586   4.460   0.956   6.052 -0.7125  0.1843  2.4057
 2198SOL     OW 8587   4.578   7.340   4.318  0.1988  1.2404  0.1079
 2198SOL    HW1 8588   4.494   7.386   4.320 -0.6300 -0.2017  0.3588
 2198SOL    HW2 8589   4.640   7.401   4.358 -0.9079  2.0104  0.6995
 2199SOL     OW 8590   0.177   1.273   2.725  0.1870  0.3911  0.0438
 2199SOL    HW1 8591   0.257   1.306   2.767  0.0399 -1.5391  2.0150
 2199SOL    HW2 8592   0.141   1.210   2.787 -2.5330  0.6712 -1.0939
 2200SOL     OW 8593   1.545   1.685   3.700 -0.2095 -0.2764 -0.1160
 2200SOL    HW1 8594   1.495   1.617   3.746  0.0582  0.8894  2.0358
 2200SOL    HW2 8595   1.606   1.636   3.645 -0.3316 -1.7832  1.0066
 2201SOL     OW 8596   8.472   8.827   0.741 -0.0813 -0.3837  0.5421
 2201SOL    HW1 8597   8.548   8.772   0.721 -1.0525 -2.2699  1.7585
 2201SOL    HW2 8598   8.472   8.833   0.836 -0.5133  1.0318  0.4628
 2202SOL     OW 8599   5.179   1.946   4.889  0.4679 -0.3094 -0.0824
 2202SOL    HW1 8600   5.110   1.917   4.829  0.0199  1.3238 -0.4002
 2202SOL    HW2 8601   5.134   1.960   4.972 -0.5038  4.1200 -1.0841
 2203SOL     OW 8602   4.482   3.362   6.714 -0.6758  0.5973  0.0532
 2203SOL    HW1 8603   4.388   3.368   6.734 -0.5276 -0.1303  1.0172
 2203SOL    HW2 8604   4.507   3.275   6.743  0.3752  0.9100  0.1136
 2204SOL     OW 8605   5.573   4.757   7.856  0.2191 -0.1763 -0.3063
 2204SOL    HW1 8606   5.604   4.808   7.931 -0.4940  2.5565 -1.7370
 2204SOL    HW2 8607   5.500   4.705   7.891  1.3937 -0.8087  1.3526
 2205SOL     OW 8608   0.188   8.376   4.227  0.2405 -0.1852  0.1315
 2205SOL    HW1 8609   0.232   8.332   4.154 -0.9756 -1.7250  0.2800
 2205SOL    HW2 8610   0.143   8.450   4.187  0.9778 -0.0091 -0.3964
 2206SOL     OW 8611   0.307   7.261   1.811  0.0619 -0.1988 -0.2170
 2206SOL    HW1 8612   0.366   7.277   1.738  0.0884  1.2225  0.0878
 2206SOL    HW2 8613   0.230   7.316   1.793 -0.0994 -0.1283  0.6144
 2207SOL     OW 8614   1.874   1.350   7.987  0.2957 -0.3665 -0.2441
 2207SOL    HW1 8615   1.823   1.275   7.957 -1.7479  1.6463 -2.0821
 2207SOL    HW2 8616   1.811   1.406   8.032  2.0357 -0.2232  2.2802
 2208SOL     OW 8617   3.860   2.407   3.068 -0.2704 -0.8213 -0.3537
 2208SOL    HW1 8618   3.818   2.323   3.049  1.2954 -2.0449  1.2314
 2208SOL    HW2 8619   3.865   2.409   3.164  2.3063 -0.2893 -0.4425
 2209SOL     OW 8620   4.986   8.818   4.338 -0.6912 -0.4727 -0.1268
 2209SOL    HW1 8621   4.944   8.802   4.253 -1.1567  0.4342 -0.0744
 2209SOL    HW2 8622   5.077   8.791   4.325 -0.8216 -0.5863 -0.8415
 2210SOL     OW 8623   6.810   0.053   0.027  0.5782 -0.2838  0.2161
 2210SOL    HW1 8624   6.716   0.046   0.010 -0.0475 -0.2003  3.2035
 2210SOL    HW2 8625   6.850   0.003  -0.044 -1.7332 -0.8273 -0.8223
 2211SOL     OW 8626   8.792   7.504   4.681  0.0670  0.1648 -0.0721
 2211SOL    HW1 8627   8.872   7.551   4.656  0.2984 -0.5162 -0.6509
 2211SOL    HW2 8628   8.813   7.463   4.765  0.2022  0.2877 -0.0460
 2212SOL     OW 8629   4.054   7.381   7.637  0.1448 -0.0258  0.3658
 2212SOL    HW1 8630   4.024   7.323   7.567  1.3415 -0.2438  0.0067
 2212SOL    HW2 8631   4.009   7.350   7.715 -0.9280 -0.0150 -0.2287
 2213SOL     OW 8632   4.606   3.208   0.679  0.3107  0.4613  0.4081
 2213SOL    HW1 8633   4.569   3.296   0.672  2.2542  1.2401 -0.7860
 2213SOL    HW2 8634   4.635   3.188   0.590 -0.3905 -1.5579  0.5871
 2214SOL     OW 8635   3.145   2.994   7.904 -0.5045 -0.1755 -0.8718
 2214SOL    HW1 8636   3.076   3.011   7.839 -1.4215  0.1909  0.1728
 2214SOL    HW2 8637   3.186   2.913   7.874 -1.9181 -0.8391 -1.0897
 2215SOL     OW 8638   4.066   1.434   1.311  0.7075 -0.7580  0.2549
 2215SOL    HW1 8639   4.043   1.457   1.221  2.7414  0.5522 -0.0090
 2215SOL    HW2 8640   4.116   1.353   1.304  2.4363  0.2689 -0.0945
 2216SOL     OW 8641   2.587   3.761   7.266 -0.8279 -0.0954  0.1100
 2216SOL    HW1 8642   2.678   3.792   7.265 -1.1938  1.0112 -0.0893
 2216SOL    HW2 8643   2.550   3.799   7.346 -1.0200 -0.8600  0.3951
 2217SOL     OW 8644   6.009   3.090   8.339 -0.2162 -0.4927 -0.0688
 2217SOL    HW1 8645   5.923   3.113   8.302 -2.0294 -0.1492  3.8787
 2217SOL    HW2 8646   6.009   2.994   8.340  0.5468 -0.5603 -2.2054
 2218SOL     OW 8647   2.067   1.501   6.956  0.0887 -0.5902  0.1392
 2218SOL    HW1 8648   2.003   1.441   6.995  0.0137  0.6206  1.9833
 2218SOL    HW2 8649   2.015   1.576   6.928  0.5148 -0.2965  0.1309
 2219SOL     OW 8650   4.009   6.914   7.229  0.1820  0.1327  0.7794
 2219SOL    HW1 8651   3.945   6.887   7.296  1.8757  0.9204  2.8350
 2219SOL    HW2 8652   4.092   6.880   7.261  1.3483  2.1580  0.0798
 2220SOL     OW 8653   6.374   3.100   5.680  0.2371 -0.1618 -0.1094
 2220SOL    HW1 8654   6.360   3.132   5.769 -1.8435 -0.5553 -0.2533
 2220SOL    HW2 8655   6.366   3.178   5.625 -1.7008 -0.3744 -0.1898
 2221SOL     OW 8656   5.902   2.935   0.728  0.8303  0.1810  0.0981
 2221SOL    HW1 8657   5.947   3.014   0.758  0.0316  1.0764 -0.9444
 2221SOL    HW2 8658   5.809   2.952   0.745  0.5883 -0.2591 -0.7028
 2222SOL     OW 8659   6.470   2.194   1.950 -0.3025 -0.3611 -0.2235
 2222SOL    HW1 8660   6.549   2.189   1.895  0.2790 -0.0177  0.5503
 2222SOL    HW2 8661   6.498   2.247   2.025 -1.6950  1.0419 -0.6566
 2223SOL     OW 8662   1.936   1.783   6.908  0.7821 -0.4107  0.1349
 2223SOL    HW1 8663   1.916   1.809   6.998 -0.5727 -2.0644  0.3470
 2223SOL    HW2 8664   2.026   1.813   6.895  1.4882 -1.2637  2.4916
 2224SOL     OW 8665   3.017   7.404   3.426  0.1562  0.2679  0.0209
 2224SOL    HW1 8666   2.981   7.479   3.472 -0.4256 -1.6789  3.0600
 2224SOL    HW2 8667   2.945   7.371   3.373 -0.2279  0.6599  0.2939
 2225SOL     OW 8668   1.013   8.102   3.427 -0.4101  0.0925  0.5937
 2225SOL    HW1 8669   0.973   8.015   3.428  0.4194 -0.3063  1.0890
 2225SOL    HW2 8670   1.098   8.089   3.469  0.5534  0.7379 -1.0325
 2226SOL     OW 8671   8.157   2.004   1.520 -0.0084 -0.2402 -0.8124
 2226SOL    HW1 8672   8.249   1.988   1.498  0.2305 -0.4281  0.2708
 2226SOL    HW2 8673   8.156   2.091   1.559  0.0548 -0.9946  0.9701
 2227SOL     OW 8674   1.689   1.235   2.701 -0.3097  0.1808 -0.3815
 2227SOL    HW1 8675   1.626   1.232   2.629 -0.9471  1.3048  0.1070
 2227SOL    HW2 8676   1.641   1.274   2.774  0.3451 -0.8690  0.6494
 2228SOL     OW 8677   2.086   0.521   2.368  0.0515 -0.7101  0.4100
 2228SOL    HW1 8678   2.001   0.496   2.403 -0.6525  1.5803  0.4826
 2228SOL    HW2 8679   2.066   0.565   2.286  1.3047 -1.4232 -0.3094
 2229SOL     OW 8680   2.191   0.078   2.848 -0.5745 -0.6751 -0.2611
 2229SOL    HW1 8681   2.138   0.120   2.781 -0.5963 -0.6146 -0.2062
 2229SOL    HW2 8682   2.129   0.025   2.899 -0.8589  0.6079  0.7764
 2230SOL     OW 8683   3.039   2.915   6.227 -0.3545  0.5440 -0.2476
 2230SOL    HW1 8684   3.117   2.934   6.279 -0.3586  0.2418 -0.1277
 2230SOL    HW2 8685   3.027   2.821   6.237 -0.4370  0.5067 -0.6819
 2231SOL     OW 8686   5.836   0.522   5.203  0.6406 -0.5827 -0.5021
 2231SOL    HW1 8687   5.776   0.455   5.170  2.4055 -1.8937 -1.2438
 2231SOL    HW2 8688   5.845   0.503   5.296  1.5783 -1.8097 -0.8156
 2232SOL     OW 8689   1.337   6.478   6.346 -0.0306 -0.1525  0.0145
 2232SOL    HW1 8690   1.370   6.419   6.414  2.9187  1.4272  0.1027
 2232SOL    HW2 8691   1.248   6.500   6.375 -1.5851 -4.8603 -0.3598
 2233SOL     OW 8692   0.863   4.334   7.504  0.2094  0.2973 -0.0475
 2233SOL    HW1 8693   0.797   4.385   7.456  2.4732  2.4572 -1.0838
 2233SOL    HW2 8694   0.812   4.280   7.565 -2.5360  1.0407 -1.5155
 2234SOL     OW 8695   2.658   6.116   2.625 -0.1776  0.2393  0.2416
 2234SOL    HW1 8696   2.615   6.056   2.563 -2.6142  0.6493  1.3852
 2234SOL    HW2 8697   2.751   6.105   2.609 -0.6297 -1.8811 -1.4111
 2235SOL     OW 8698   6.780   1.974   2.104  0.3187  0.1202 -0.2999
 2235SOL    HW1 8699   6.785   1.878   2.103 -1.8316 -0.0428 -0.3383
 2235SOL    HW2 8700   6.779   1.998   2.011 -0.5926  0.0504 -0.3167
 2236SOL     OW 8701   6.404   3.247   1.817  0.3646 -0.8094 -0.2250
 2236SOL    HW1 8702   6.322   3.200   1.822  0.0154 -0.1223  1.2980
 2236SOL    HW2 8703   6.461   3.202   1.880 -0.0560  0.8336  1.4426
 2237SOL     OW 8704   1.937   6.428   4.824 -0.4917  0.1475 -0.4518
 2237SOL    HW1 8705   2.022   6.402   4.787  0.6912  0.3144  1.9159
 2237SOL    HW2 8706   1.937   6.523   4.821 -1.3766  0.1236 -1.9780
 2238SOL     OW 8707   7.864   6.577   0.340  0.4339 -0.7351 -0.1881
 2238SOL    HW1 8708   7.919   6.520   0.393 -0.0347 -1.0414 -0.0189
 2238SOL    HW2 8709   7.788   6.523   0.318 -0.2075 -0.0658  0.3133
 2239SOL     OW 8710   5.730   8.532   6.435 -0.2543 -0.0453 -0.0163
 2239SOL    HW1 8711   5.802   8.525   6.498 -1.0865  0.5707  1.0412
 2239SOL    HW2 8712   5.667   8.590   6.478 -0.8625  0.3629 -1.4218
 2240SOL     OW 8713   0.911   2.998   3.689  0.7056 -0.0486  0.0794
 2240SOL    HW1 8714   0.893   2.906   3.705 -1.1550  0.0673 -0.9837
 2240SOL    HW2 8715   1.006   3.003   3.680  0.8045 -1.9644 -0.4079
 2241SOL     OW 8716   0.264   2.545   0.279  0.4828  0.1263  0.2188
 2241SOL    HW1 8717   0.244   2.473   0.220 -1.2753 -1.4275  2.5390
 2241SOL    HW2 8718   0.319   2.505   0.347  1.1154  1.4708  0.5367
 2242SOL     OW 8719   4.719   4.415   5.277 -0.7590 -0.5625 -0.2922
 2242SOL    HW1 8720   4.743   4.451   5.363 -1.1521 -0.4916 -0.2096
 2242SOL    HW2 8721   4.628   4.389   5.287 -1.5573  1.6049 -1.3724
 2243SOL     OW 8722   4.592   4.348   3.220  0.5535 -0.5324 -0.2660
 2243SOL    HW1 8723   4.591   4.336   3.315  0.6996  0.9673 -0.0467
 2243SOL    HW2 8724   4.581   4.260   3.184 -2.4164 -0.8396  1.1426
 2244SOL     OW 8725   8.787   3.129   0.630  0.2551  0.4062  0.4239
 2244SOL    HW1 8726   8.832   3.213   0.638 -1.2031  1.1810  0.7031
 2244SOL    HW2 8727   8.846   3.066   0.672  2.4863  0.8171 -1.8049
 2245SOL     OW 8728   2.270   4.500   3.678 -0.3862  0.0641  0.2154
 2245SOL    HW1 8729   2.360   4.467   3.679 -0.5426 -0.3510  0.5048
 2245SOL    HW2 8730   2.216   4.425   3.701 -0.9677 -0.1535 -1.6741
 2246SOL     OW 8731   6.201   7.774   5.298 -0.3376 -0.7314 -0.0275
 2246SOL    HW1 8732   6.145   7.816   5.233 -0.1221  0.4177  0.5068
 2246SOL    HW2 8733   6.257   7.715   5.247  0.0860  0.4199 -0.9458
 2247SOL     OW 8734   6.452   3.040   4.897  0.1544  0.2457  0.1045
 2247SOL    HW1 8735   6.418   2.986   4.825 -0.2333 -0.9668  1.1692
 2247SOL    HW2 8736   6.512   2.982   4.944  1.1725  1.3400  0.1994
 2248SOL     OW 8737   6.636   3.784   3.208  0.8891 -0.2120 -0.0283
 2248SOL    HW1 8738   6.662   3.871   3.177 -1.0003  0.4649  0.1598
 2248SOL    HW2 8739   6.689   3.724   3.156  1.1417  1.0157 -1.2619
 2249SOL     OW 8740   7.053   0.620   7.910  0.2418  0.1322 -0.1113
 2249SOL    HW1 8741   7.102   0.550   7.952  2.7714  2.0764  0.4427
 2249SOL    HW2 8742   7.079   0.616   7.818 -0.4496 -0.2718 -0.2993
 2250SOL     OW 8743   3.435   5.942   3.461  0.0873 -0.7522 -0.1448
 2250SOL    HW1 8744   3.495   5.891   3.515 -0.6849 -0.9219  0.5794
 2250SOL    HW2 8745   3.475   5.943   3.374  1.3494 -0.4719  0.4258
 2251SOL     OW 8746   7.422   0.582   1.568 -0.5037 -0.0978 -0.0595
 2251SOL    HW1 8747   7.463   0.586   1.654 -0.2954 -0.7661 -0.1205
 2251SOL    HW2 8748   7.493   0.598   1.506  0.1615 -3.2299 -0.2628
 2252SOL     OW 8749   6.115   7.484   5.878 -0.0902 -0.5788 -0.0478
 2252SOL    HW1 8750   6.125   7.575   5.849  3.0164 -0.1663  1.7988
 2252SOL    HW2 8751   6.045   7.448   5.823 -0.6423  2.5773 -1.6240
 2253SOL     OW 8752   3.486   5.235   8.211  0.3875 -0.2826 -0.0885
 2253SOL    HW1 8753   3.467   5.328   8.224  0.9746 -0.0884 -0.5985
 2253SOL    HW2 8754   3.448   5.214   8.126 -1.1332 -0.9105  0.7179
 2254SOL     OW 8755   0.354   4.226   3.770 -0.3154 -0.5112  0.2953
 2254SOL    HW1 8756   0.293   4.225   3.697 -0.6304  0.6586  0.5253
 2254SOL    HW2 8757   0.302   4.200   3.846 -0.4818  0.2349  0.4456
 2255SOL     OW 8758   8.872   6.349   2.100 -0.0369  0.2456  0.0604
 2255SOL    HW1 8759   8.902   6.428   2.056 -1.6328  1.4007  0.9279
 2255SOL    HW2 8760   8.776   6.358   2.102 -0.2837 -1.8209 -0.0033
 2256SOL     OW 8761   3.138   1.662   5.011 -0.1837  0.2493 -0.6744
 2256SOL    HW1 8762   3.219   1.713   5.011 -0.6202  1.0165  1.4485
 2256SOL    HW2 8763   3.167   1.570   5.011  0.6110  0.4214 -3.2763
 2257SOL     OW 8764   2.885   0.501   7.219  0.5385  0.4715 -0.0495
 2257SOL    HW1 8765   2.964   0.555   7.215  1.4005 -0.6209  1.5054
 2257SOL    HW2 8766   2.817   0.561   7.249  0.1329  2.0064 -3.5323
 2258SOL     OW 8767   2.600   4.668   6.774  0.0471  0.0569  0.1006
 2258SOL    HW1 8768   2.590   4.652   6.868 -1.7444 -1.5236 -0.2971
 2258SOL    HW2 8769   2.637   4.587   6.740  1.9364  1.0851 -0.4346
 2259SOL     OW 8770   3.348   8.132   7.429  0.2557  0.5122 -0.3929
 2259SOL    HW1 8771   3.384   8.206   7.479  2.7160 -1.2986  0.7163
 2259SOL    HW2 8772   3.295   8.084   7.492  1.0074 -0.2032 -0.2912
 2260SOL     OW 8773   8.474   0.191   1.997 -0.0857  0.1622 -0.2553
 2260SOL    HW1 8774   8.538   0.205   1.927 -2.0396  1.3531 -1.9238
 2260SOL    HW2 8775   8.460   0.097   1.998  2.8624 -0.3984  1.3640
 2261SOL     OW 8776   5.247   4.300   0.152  0.5005 -0.2697  0.1566
 2261SOL    HW1 8777   5.338   4.330   0.157  0.4728 -0.2311  0.4462
 2261SOL    HW2 8778   5.253   4.205   0.154  0.6583 -0.3474 -1.8396
 2262SOL     OW 8779   4.589   1.430   1.055 -0.3843  0.0204  0.1291
 2262SOL    HW1 8780   4.541   1.377   1.120 -0.1142  0.9243  1.0910
 2262SOL    HW2 8781   4.539   1.511   1.049  0.2736  0.4305  0.1251
 2263SOL     OW 8782   4.572   8.196   3.438  0.0890 -0.6495 -0.6671
 2263SOL    HW1 8783   4.635   8.160   3.375  1.0722 -0.9552  0.4374
 2263SOL    HW2 8784   4.508   8.126   3.450  0.3404 -0.8942 -0.7351
 2264SOL     OW 8785   8.617   1.384   5.966  0.0340 -0.5012  0.2777
 2264SOL    HW1 8786   8.644   1.293   5.955 -0.2827 -0.6272  0.5110
 2264SOL    HW2 8787   8.611   1.396   6.060 -0.8708 -0.5327  0.2395
 2265SOL     OW 8788   2.563   1.815   8.699 -0.2045 -0.3356 -0.2927
 2265SOL    HW1 8789   2.577   1.908   8.681  0.1482 -0.0649  1.2049
 2265SOL    HW2 8790   2.650   1.776   8.691  0.4629  0.2146  2.8501
 2266SOL     OW 8791   1.698   0.108   3.972  0.1156  0.2779 -0.4489
 2266SOL    HW1 8792   1.666   0.068   3.891 -1.2700 -0.1924  0.2914
 2266SOL    HW2 8793   1.633   0.176   3.992 -0.4430 -0.6403  1.0554
 2267SOL     OW 8794   6.413   0.651   1.766 -0.6362  0.0416  0.4586
 2267SOL    HW1 8795   6.426   0.698   1.849  0.6698  0.7810 -0.1317
 2267SOL    HW2 8796   6.470   0.574   1.774 -0.0532  0.4182  0.0381
 2268SOL     OW 8797   0.626   5.412   5.388 -0.4926  0.9201 -0.1841
 2268SOL    HW1 8798   0.707   5.391   5.434 -1.3953 -0.0839  1.0162
 2268SOL    HW2 8799   0.655   5.457   5.308  1.3172 -0.5001 -0.4142
 2269SOL     OW 8800   0.668   4.528   8.305  0.5321  0.4811 -0.1981
 2269SOL    HW1 8801   0.693   4.460   8.368  1.3832  0.0400 -0.9716
 2269SOL    HW2 8802   0.743   4.587   8.303  0.5140  0.4917 -0.7749
 2270SOL     OW 8803   1.063   1.187   1.915  0.3006  0.5195 -0.0358
 2270SOL    HW1 8804   1.009   1.113   1.887 -0.5519  1.5038 -1.0474
 2270SOL    HW2 8805   1.011   1.230   1.983  0.7500  0.2617  0.4790
 2271SOL     OW 8806   1.664   0.096   4.663 -0.0622  0.2139  0.0370
 2271SOL    HW1 8807   1.589   0.105   4.604  0.1217 -0.0396 -0.2368
 2271SOL    HW2 8808   1.694   0.006   4.650 -0.1794  0.0743  0.7103
 2272SOL     OW 8809   5.456   6.271   5.648  0.0234 -0.1128  0.1517
 2272SOL    HW1 8810   5.413   6.289   5.565 -0.8689  0.4920  0.7385
 2272SOL    HW2 8811   5.511   6.194   5.630  0.3407  0.3984 -1.1563
 2273SOL     OW 8812   6.377   3.980   6.311  0.5424 -0.0396  0.0463
 2273SOL    HW1 8813   6.430   4.008   6.386 -0.0969 -0.5524  0.6989
 2273SOL    HW2 8814   6.350   4.062   6.270  1.1807  0.2420  0.1693
 2274SOL     OW 8815   1.623   2.533   4.611  0.2676  0.2527  0.0516
 2274SOL    HW1 8816   1.631   2.466   4.544  1.6026 -0.5455  0.9700
 2274SOL    HW2 8817   1.581   2.488   4.685 -0.9288  1.0475 -0.1067
 2275SOL     OW 8818   7.748   4.823   2.051  0.0255  0.2073 -0.1283
 2275SOL    HW1 8819   7.687   4.762   2.094  0.6657 -0.2387  0.1621
 2275SOL    HW2 8820   7.825   4.770   2.031 -0.2336  0.4283 -1.7985
 2276SOL     OW 8821   2.199   0.988   8.347 -0.1864  0.5790  0.2578
 2276SOL    HW1 8822   2.213   1.075   8.383 -0.0296  1.1563 -1.1507
 2276SOL    HW2 8823   2.104   0.975   8.354 -0.3608  1.3325 -0.5396
 2277SOL     OW 8824   5.113   3.305   7.640  0.1599  0.3755  0.6745
 2277SOL    HW1 8825   5.070   3.376   7.593  1.0959  0.6097  0.1668
 2277SOL    HW2 8826   5.180   3.273   7.580 -1.2893 -2.0491  0.1969
 2278SOL     OW 8827   7.755   7.605   2.902  0.2444 -0.0201 -0.0696
 2278SOL    HW1 8828   7.720   7.533   2.954  1.9234 -0.3981  0.5941
 2278SOL    HW2 8829   7.718   7.592   2.815 -0.1127 -1.2301  0.2499
 2279SOL     OW 8830   1.652   5.394   0.682  0.9110  0.9934 -0.0301
 2279SOL    HW1 8831   1.561   5.365   0.691  1.2761  0.2396  1.4261
 2279SOL    HW2 8832   1.696   5.319   0.641  1.3911  0.2925  1.6849
 2280SOL     OW 8833   4.593   0.284   3.916  0.0162 -0.4161  0.1869
 2280SOL    HW1 8834   4.672   0.278   3.862  0.4690 -1.9076  0.9720
 2280SOL    HW2 8835   4.625   0.309   4.003 -0.4247 -0.6322  0.4127
 2281SOL     OW 8836   7.147   8.163   6.915  0.3401  0.2699 -0.4737
 2281SOL    HW1 8837   7.161   8.254   6.941  2.4801 -0.1710  0.1210
 2281SOL    HW2 8838   7.158   8.163   6.820 -0.1044  0.6897 -0.5293
 2282SOL     OW 8839   5.215   6.718   5.136  0.1733 -0.9252  0.6454
 2282SOL    HW1 8840   5.186   6.804   5.105 -0.7413 -1.2585  0.5440
 2282SOL    HW2 8841   5.178   6.656   5.074  2.4432 -1.3075 -0.4176
 2283SOL     OW 8842   6.503   4.667   4.717 -0.3476 -0.0311 -0.2584
 2283SOL    HW1 8843   6.568   4.662   4.786  0.4062 -0.9525 -1.0034
 2283SOL    HW2 8844   6.421   4.640   4.758  0.2986 -1.6541  0.0390
 2284SOL     OW 8845   5.302   7.727   8.565  0.1641  0.3148  0.4487
 2284SOL    HW1 8846   5.345   7.808   8.537  1.6653  0.3154  2.4948
 2284SOL    HW2 8847   5.308   7.729   8.661 -0.8656 -1.6445  0.5966
 2285SOL     OW 8848   6.688   6.158   4.096 -0.3888 -0.2227 -0.5962
 2285SOL    HW1 8849   6.783   6.168   4.087 -0.3158  0.8885  0.9836
 2285SOL    HW2 8850   6.668   6.074   4.055  1.4729 -1.1241  0.2577
 2286SOL     OW 8851   1.724   2.503   6.706 -0.4984  0.1720 -0.2481
 2286SOL    HW1 8852   1.766   2.578   6.748 -0.9167  0.3792 -0.2009
 2286SOL    HW2 8853   1.791   2.435   6.707 -0.2424  0.4247  0.0476
 2287SOL     OW 8854   6.397   5.447   2.229 -0.4828 -1.1377 -0.0013
 2287SOL    HW1 8855   6.482   5.465   2.269 -1.1865 -0.0995  1.1130
 2287SOL    HW2 8856   6.341   5.422   2.302 -1.4114 -0.7553 -0.5622
 2288SOL     OW 8857   6.497   5.677   0.345 -0.0529 -0.0600  0.9889
 2288SOL    HW1 8858   6.499   5.583   0.329 -1.9551 -0.2113  1.4414
 2288SOL    HW2 8859   6.475   5.716   0.261 -0.5424 -0.1211  1.0882
 2289SOL     OW 8860   1.333   6.074   6.040 -0.6311  0.1450 -0.3197
 2289SOL    HW1 8861   1.295   6.155   6.006 -2.6867  0.2257  1.8969
 2289SOL    HW2 8862   1.269   6.006   6.019 -0.2876 -0.3969  0.3249
 2290SOL     OW 8863   6.547   2.436   4.935  0.3686 -0.0378 -0.6844
 2290SOL    HW1 8864   6.502   2.521   4.941  1.9304  0.7756  0.6014
 2290SOL    HW2 8865   6.573   2.429   4.844 -1.3146 -0.0056 -1.2044
 2291SOL     OW 8866   7.253   4.997   0.650  0.3739  0.0914  0.7720
 2291SOL    HW1 8867   7.271   4.916   0.602  1.4354  0.2373  0.9070
 2291SOL    HW2 8868   7.264   4.974   0.742 -0.7404  0.0452  0.9052
 2292SOL     OW 8869   6.899   4.756   1.263 -0.0798  0.3476 -0.5947
 2292SOL    HW1 8870   6.857   4.768   1.348 -0.7932 -0.1170 -0.8757
 2292SOL    HW2 8871   6.865   4.672   1.231  0.0853  0.5763 -1.3927
 2293SOL     OW 8872   8.621   2.690   5.928  0.3461  0.7086 -0.2390
 2293SOL    HW1 8873   8.713   2.668   5.912 -0.1061 -0.3728 -1.5588
 2293SOL    HW2 8874   8.585   2.612   5.969  0.0939  1.2821  0.6449
 2294SOL     OW 8875   6.211   5.778   0.605 -0.2281 -0.0527 -0.3420
 2294SOL    HW1 8876   6.239   5.837   0.534  0.3936  0.0674 -0.0084
 2294SOL    HW2 8877   6.229   5.827   0.685 -2.8559  0.6713 -0.0955
 2295SOL     OW 8878   1.061   7.065   5.992 -0.3974  0.2285 -0.0697
 2295SOL    HW1 8879   1.091   7.069   6.084 -0.7636  0.3975  0.0420
 2295SOL    HW2 8880   0.980   7.115   5.991 -1.5434 -1.5702 -0.0368
 2296SOL     OW 8881   3.556   4.041   4.901  0.0065 -0.2099  0.3821
 2296SOL    HW1 8882   3.471   4.083   4.916  0.3231  0.9645 -0.9490
 2296SOL    HW2 8883   3.604   4.103   4.847  0.3374 -2.4818 -2.1273
 2297SOL     OW 8884   8.250   0.244   0.269  0.5038  0.4948 -0.3310
 2297SOL    HW1 8885   8.191   0.315   0.244 -1.2375 -0.4081  0.8826
 2297SOL    HW2 8886   8.261   0.255   0.364  0.3634 -0.6821 -0.1533
 2298SOL     OW 8887   5.263   0.280   6.181  0.6777  0.2041 -0.1880
 2298SOL    HW1 8888   5.189   0.291   6.241  1.7595  1.1847  1.0364
 2298SOL    HW2 8889   5.338   0.268   6.239  1.5099 -0.5375 -1.4050
 2299SOL     OW 8890   4.644   5.241   1.330 -0.4549 -0.0988 -0.4996
 2299SOL    HW1 8891   4.660   5.240   1.235 -0.1071 -0.9389 -0.4389
 2299SOL    HW2 8892   4.706   5.305   1.364 -0.0552 -0.3467 -0.7559
 2300SOL     OW 8893   5.007   2.368   6.660  0.3694 -0.4137 -0.4329
 2300SOL    HW1 8894   5.010   2.426   6.583  1.0087 -1.1154 -0.9478
 2300SOL    HW2 8895   4.913   2.354   6.675 -0.0056  3.1154  1.5462
 2301SOL     OW 8896   0.881   4.928   5.361 -0.6788  0.6183 -0.4883
 2301SOL    HW1 8897   0.865   4.842   5.401  0.1188  0.3551 -0.7263
 2301SOL    HW2 8898   0.971   4.950   5.386 -0.2403  0.5530 -1.9281
 2302SOL     OW 8899   3.319   4.137   5.004  0.4838 -0.0805 -0.0225
 2302SOL    HW1 8900   3.348   4.188   5.080 -1.4754  0.0152  0.7317
 2302SOL    HW2 8901   3.323   4.199   4.931 -0.3818  0.7453  0.5932
 2303SOL     OW 8902   1.921   7.859   5.466 -0.5424  0.1365  0.4264
 2303SOL    HW1 8903   1.857   7.924   5.493 -0.5281  0.4744 -0.3321
 2303SOL    HW2 8904   1.978   7.906   5.405 -0.6859 -0.6526 -0.3306
 2304SOL     OW 8905   8.685   8.866   4.815 -0.1651  1.1257 -0.2756
 2304SOL    HW1 8906   8.684   8.797   4.749 -0.2029  0.8605  0.0000
 2304SOL    HW2 8907   8.607   8.849   4.869  0.7062  0.4096  0.7876
 2305SOL     OW 8908   7.571   1.917   5.467 -0.1615 -0.1391 -0.3434
 2305SOL    HW1 8909   7.598   2.008   5.478 -0.5967  0.0980 -1.1781
 2305SOL    HW2 8910   7.630   1.867   5.523  0.0418  0.6616  0.1661
 2306SOL     OW 8911   3.335   7.939   1.107  0.1674 -0.3194  0.4042
 2306SOL    HW1 8912   3.375   8.009   1.159 -0.6421  1.8041 -1.6377
 2306SOL    HW2 8913   3.244   7.936   1.136 -0.0563  0.2392 -0.2013
 2307SOL     OW 8914   6.422   7.283   1.508  0.3760  0.5978 -0.6391
 2307SOL    HW1 8915   6.341   7.261   1.461 -0.1976  1.8829 -0.2994
 2307SOL    HW2 8916   6.395   7.287   1.600  0.7109  1.5372 -0.5755
 2308SOL     OW 8917   1.967   3.278   2.790 -0.6643  0.0850 -0.2360
 2308SOL    HW1 8918   2.042   3.292   2.732 -0.3915 -1.7888 -0.3955
 2308SOL    HW2 8919   1.891   3.294   2.735 -0.4095  1.6326 -0.1736
 2309SOL     OW 8920   6.904   7.585   0.590 -0.3972  0.8019  0.2007
 2309SOL    HW1 8921   6.930   7.506   0.542  0.1782  0.8436  0.4375
 2309SOL    HW2 8922   6.818   7.565   0.625 -0.9668  0.8738 -1.0949
 2310SOL     OW 8923   1.450   4.643   4.781  0.0215 -0.0210 -0.0815
 2310SOL    HW1 8924   1.497   4.566   4.813  1.7230  0.4483 -1.2646
 2310SOL    HW2 8925   1.485   4.715   4.835 -1.4627 -0.0280  0.9332
 2311SOL     OW 8926   1.408   0.649   2.791  0.1556  0.0118 -0.3357
 2311SOL    HW1 8927   1.446   0.700   2.720 -0.6131  1.6639  0.3891
 2311SOL    HW2 8928   1.478   0.641   2.855  0.4206 -0.2789 -0.6543
 2312SOL     OW 8929   2.707   3.784   2.072 -0.0224  0.2463  0.6142
 2312SOL    HW1 8930   2.710   3.695   2.038  0.7794  0.1684  0.8639
 2312SOL    HW2 8931   2.622   3.819   2.043 -0.1472 -0.4431  0.1431
 2313SOL     OW 8932   4.989   2.868   1.184  0.3344  0.2671  0.3043
 2313SOL    HW1 8933   5.017   2.796   1.241  1.2354  0.2292 -0.1721
 2313SOL    HW2 8934   5.047   2.863   1.108 -0.7142  0.4455 -0.5410
 2314SOL     OW 8935   7.084   3.339   6.085  0.6770 -0.4870  0.2828
 2314SOL    HW1 8936   7.106   3.248   6.105  3.3063  0.1519  0.6405
 2314SOL    HW2 8937   7.005   3.333   6.030  1.6330 -3.0819 -0.9709
 2315SOL     OW 8938   4.367   3.114   8.738  0.5239 -0.2845 -0.2111
 2315SOL    HW1 8939   4.330   3.129   8.825  0.5044  1.3689 -0.4725
 2315SOL    HW2 8940   4.310   3.048   8.698 -0.7091  0.4621  0.2784
 2316SOL     OW 8941   4.925   0.597   6.698  0.5293 -0.3055  0.0272
 2316SOL    HW1 8942   4.844   0.575   6.652  0.6452 -0.4482 -0.1106
 2316SOL    HW2 8943   4.978   0.517   6.691  0.0991 -0.7470  1.3825
 2317SOL     OW 8944   0.975   6.847   7.062 -0.2308  0.0699  0.5933
 2317SOL    HW1 8945   0.930   6.781   7.010 -0.7114  1.2841 -0.5752
 2317SOL    HW2 8946   0.934   6.842   7.148  0.5733 -1.9672  0.9078
 2318SOL     OW 8947   4.766   2.242   1.130 -0.3533 -0.2226  0.2080
 2318SOL    HW1 8948   4.757   2.227   1.036 -0.9123 -0.3843  0.2788
 2318SOL    HW2 8949   4.815   2.166   1.162 -1.3956 -0.8978  0.2546
 2319SOL     OW 8950   8.408   6.594   4.163  0.2196 -0.2053 -0.0514
 2319SOL    HW1 8951   8.381   6.623   4.250  0.2825 -1.8658  0.5722
 2319SOL    HW2 8952   8.498   6.626   4.154 -0.3749  1.4821 -0.2614
 2320SOL     OW 8953   2.634   5.038   0.907  0.6796 -0.1531  0.0824
 2320SOL    HW1 8954   2.724   5.047   0.876  0.8065 -1.3967  0.0437
 2320SOL    HW2 8955   2.607   4.952   0.877 -1.2504  0.9883 -1.7018
 2321SOL     OW 8956   0.102   4.075   7.050  0.0071 -0.4076  0.1547
 2321SOL    HW1 8957   0.029   4.116   7.005  0.2558  0.9608  0.9594
 2321SOL    HW2 8958   0.180   4.117   7.014  0.2738 -0.2560  0.8788
 2322SOL     OW 8959   2.656   5.184   5.946  0.4711 -0.8950  0.6490
 2322SOL    HW1 8960   2.708   5.111   5.912  1.0213  0.3922 -1.4636
 2322SOL    HW2 8961   2.593   5.143   6.005  1.7896 -2.8742  0.7850
 2323SOL     OW 8962   5.286   3.723   5.095 -0.0229 -0.6097 -0.5498
 2323SOL    HW1 8963   5.278   3.760   5.007 -0.1248  0.4980 -0.0944
 2323SOL    HW2 8964   5.202   3.679   5.110 -1.3693  2.0122  0.2121
 2324SOL     OW 8965   1.544   4.931   4.821  0.4785 -0.2146  0.1215
 2324SOL    HW1 8966   1.548   4.938   4.726  3.0922 -1.5476  0.0406
 2324SOL    HW2 8967   1.628   4.966   4.851  0.7594 -2.1152  1.7188
 2325SOL     OW 8968   2.100   8.832   8.167  0.1539  0.2461 -0.3211
 2325SOL    HW1 8969   2.109   8.914   8.119 -0.6375  0.5957  0.1049
 2325SOL    HW2 8970   2.009   8.832   8.198  0.7241  0.1987  1.4571
 2326SOL     OW 8971   7.985   0.370   3.746  0.1060 -0.3930  0.1545
 2326SOL    HW1 8972   8.044   0.440   3.716 -0.8077 -0.4622 -1.9967
 2326SOL    HW2 8973   8.024   0.290   3.711 -0.4831 -0.5966 -0.0410
 2327SOL     OW 8974   7.815   5.646   7.193 -0.2714 -0.2279  0.3141
 2327SOL    HW1 8975   7.745   5.583   7.205 -0.0440 -0.8152 -1.1906
 2327SOL    HW2 8976   7.773   5.721   7.149  0.0296 -0.6070 -0.6472
 2328SOL     OW 8977   1.632   5.089   6.354  0.1313  0.2747 -0.1636
 2328SOL    HW1 8978   1.686   5.011   6.367 -1.3238 -0.7352  0.1186
 2328SOL    HW2 8979   1.664   5.152   6.419  1.3035 -0.0862 -0.3707
 2329SOL     OW 8980   8.527   3.444   8.753 -0.3386 -0.6402 -0.1888
 2329SOL    HW1 8981   8.548   3.515   8.813 -2.1343 -0.0823 -0.1824
 2329SOL    HW2 8982   8.604   3.438   8.696  0.7694 -0.2030  1.2147
 2330SOL     OW 8983   1.864   8.051   0.761 -0.4173 -0.2209 -0.4842
 2330SOL    HW1 8984   1.857   7.957   0.745 -0.1494 -0.7336  2.0078
 2330SOL    HW2 8985   1.902   8.086   0.680  0.9826 -2.4703 -0.9050
 2331SOL     OW 8986   1.038   3.580   7.384 -0.4352  0.0330  0.0411
 2331SOL    HW1 8987   1.034   3.656   7.326 -3.3960  1.2544  1.6178
 2331SOL    HW2 8988   0.963   3.526   7.359 -1.5866  0.4177  2.3405
 2332SOL     OW 8989   6.007   4.982   4.371  0.2198 -0.8264 -0.3171
 2332SOL    HW1 8990   5.985   4.889   4.381 -0.8935 -0.6815 -1.1581
 2332SOL    HW2 8991   6.088   4.993   4.420  0.5578 -2.3216 -0.4854
 2333SOL     OW 8992   1.620   1.431   8.684 -0.2923  0.0223 -0.3623
 2333SOL    HW1 8993   1.557   1.363   8.659 -0.9769  0.8896 -1.0449
 2333SOL    HW2 8994   1.700   1.407   8.637 -0.9106  0.3716 -1.6461
 2334SOL     OW 8995   3.128   5.891   4.604  0.0514 -0.3315  0.2889
 2334SOL    HW1 8996   3.071   5.963   4.632  2.2187  1.5009  0.3222
 2334SOL    HW2 8997   3.148   5.843   4.685 -1.4315 -1.0347  0.2647
 2335SOL     OW 8998   5.463   6.025   1.844  0.4303  0.1910 -0.0904
 2335SOL    HW1 8999   5.548   5.981   1.847  1.2940  1.8031  0.4594
 2335SOL    HW2 9000   5.454   6.052   1.753  0.2077 -0.5293 -0.2850
 2336SOL     OW 9001   8.108   3.239   7.377  0.4999 -0.2324 -0.4843
 2336SOL    HW1 9002   8.169   3.175   7.416  1.7434 -0.3968 -2.5736
 2336SOL    HW2 9003   8.164   3.314   7.355 -0.3777  0.2838 -0.9750
 2337SOL     OW 9004   4.180   8.194   8.739  0.0934  0.1389  0.4551
 2337SOL    HW1 9005   4.141   8.168   8.823  0.6829  2.2782  1.4429
 2337SOL    HW2 9006   4.274   8.190   8.754  0.2693  3.6036  1.0357
 2338SOL     OW 9007   5.452   5.732   0.781 -0.2656 -0.2778 -0.0705
 2338SOL    HW1 9008   5.443   5.776   0.697 -1.4388 -3.3919 -1.7281
 2338SOL    HW2 9009   5.363   5.704   0.804  0.2508 -0.7765  1.4976
 2339SOL     OW 9010   8.874   2.641   5.506 -0.1598 -0.1605 -0.3731
 2339SOL    HW1 9011   8.894   2.641   5.412  0.9789  1.6006 -0.1791
 2339SOL    HW2 9012   8.937   2.702   5.544 -2.1035  0.9920  1.1938
 2340SOL     OW 9013   8.450   4.779   6.095 -0.3173 -0.3333  0.2914
 2340SOL    HW1 9014   8.444   4.868   6.060 -1.0683 -0.2023  0.7120
 2340SOL    HW2 9015   8.383   4.730   6.047 -0.1827 -0.5719  0.3441
 2341SOL     OW 9016   2.261   0.834   5.020  0.3230 -0.3112  0.4436
 2341SOL    HW1 9017   2.316   0.824   4.943 -1.9243 -2.6651 -1.0277
 2341SOL    HW2 9018   2.172   0.813   4.989 -0.4098 -3.7077  4.0038
 2342SOL     OW 9019   7.567   6.640   8.005  0.0011  0.5305 -0.2820
 2342SOL    HW1 9020   7.492   6.697   7.988 -0.2920  0.1937 -0.1372
 2342SOL    HW2 9021   7.619   6.687   8.070 -0.4974  0.4151  0.2096
 2343SOL     OW 9022   3.228   5.326   0.860 -0.3691 -0.5036  0.0303
 2343SOL    HW1 9023   3.197   5.350   0.947 -3.3723  0.5129 -1.1761
 2343SOL    HW2 9024   3.283   5.249   0.874  1.0559  0.8879  2.9780
 2344SOL     OW 9025   4.553   6.389   3.857 -0.3150  0.8386 -0.0725
 2344SOL    HW1 9026   4.487   6.384   3.926 -0.9359  1.6505 -0.5902
 2344SOL    HW2 9027   4.611   6.460   3.883  0.2170  0.2965  0.2498
 2345SOL     OW 9028   7.715   3.650   7.812 -0.4399 -0.1849  0.3674
 2345SOL    HW1 9029   7.645   3.598   7.773  0.2711 -1.7793  1.1203
 2345SOL    HW2 9030   7.700   3.644   7.906  0.5044 -0.2763  0.5264
 2346SOL     OW 9031   8.799   3.363   3.556 -0.2518  0.3352  0.1606
 2346SOL    HW1 9032   8.833   3.273   3.554  0.4574  0.5980 -2.3247
 2346SOL    HW2 9033   8.710   3.356   3.523 -0.0123  0.6027 -0.5506
 2347SOL     OW 9034   4.427   2.357   8.520 -0.9278 -0.8007 -0.6199
 2347SOL    HW1 9035   4.344   2.375   8.565 -0.4754  1.2818 -0.5246
 2347SOL    HW2 9036   4.412   2.388   8.430 -1.0531 -2.7633 -1.3086
 2348SOL     OW 9037   7.533   8.876   3.376  0.3779  0.4651  0.3738
 2348SOL    HW1 9038   7.614   8.833   3.403 -0.4850  0.3519  3.1075
 2348SOL    HW2 9039   7.464   8.830   3.423 -0.9751  2.3866  0.3841
 2349SOL     OW 9040   1.811   2.232   1.106 -0.3741 -0.2925 -0.1650
 2349SOL    HW1 9041   1.716   2.233   1.110 -0.3920 -0.2736 -0.5597
 2349SOL    HW2 9042   1.831   2.206   1.016  0.0033 -1.3599  0.2097
 2350SOL     OW 9043   3.773   5.641   2.800  0.5109 -0.4303 -0.4255
 2350SOL    HW1 9044   3.769   5.586   2.721 -0.6251  1.5289 -1.8140
 2350SOL    HW2 9045   3.691   5.690   2.799  0.7880  0.1492  1.6404
 2351SOL     OW 9046   3.523   7.694   7.343  0.3893  0.6093 -0.3068
 2351SOL    HW1 9047   3.539   7.602   7.366 -2.8531 -0.1428 -0.5773
 2351SOL    HW2 9048   3.504   7.736   7.427 -2.3775 -0.0429 -0.5184
 2352SOL     OW 9049   7.078   4.624   2.025 -0.6696  0.7275 -0.1606
 2352SOL    HW1 9050   7.116   4.569   1.957  1.7257  0.2399  1.4423
 2352SOL    HW2 9051   7.052   4.563   2.094 -0.4503  1.3833  0.5179
 2353SOL     OW 9052   5.272   0.016   0.529  0.4877  0.0690  0.2503
 2353SOL    HW1 9053   5.228   0.060   0.602 -0.6373  1.4751 -1.2031
 2353SOL    HW2 9054   5.365   0.020   0.550  0.1586  0.1043  1.7652
 2354SOL     OW 9055   4.969   1.749   4.793 -0.2625 -0.2032 -0.2730
 2354SOL    HW1 9056   4.981   1.673   4.736 -1.0032 -0.7903  0.3268
 2354SOL    HW2 9057   5.015   1.725   4.874 -2.1735 -0.9258  0.6812
 2355SOL     OW 9058   7.619   6.437   0.349  0.4628  0.0619  0.0466
 2355SOL    HW1 9059   7.539   6.485   0.326 -0.5988 -2.0212 -0.9131
 2355SOL    HW2 9060   7.594   6.384   0.424  1.1314 -0.1586  0.1179
 2356SOL     OW 9061   1.790   1.448   5.638 -0.2937  0.1077  0.2208
 2356SOL    HW1 9062   1.736   1.511   5.590 -0.5955 -1.2734 -1.3224
 2356SOL    HW2 9063   1.847   1.410   5.571  0.8037 -0.3326  1.3676
 2357SOL     OW 9064   5.044   5.021   4.181 -0.0995  0.8028  0.4940
 2357SOL    HW1 9065   5.021   5.093   4.239 -1.1112 -0.7482  2.1257
 2357SOL    HW2 9066   5.092   4.960   4.236 -0.8475 -0.5999 -0.3338
 2358SOL     OW 9067   0.276   7.144   1.388  0.1407 -0.7144  0.2477
 2358SOL    HW1 9068   0.205   7.111   1.331 -0.3870 -1.2428  1.1858
 2358SOL    HW2 9069   0.340   7.073   1.389 -0.6722 -1.4698  1.7064
 2359SOL     OW 9070   4.657   2.035   4.075  0.5669 -0.0738 -0.7332
 2359SOL    HW1 9071   4.717   2.090   4.124  0.7613 -0.0880 -0.9520
 2359SOL    HW2 9072   4.574   2.042   4.121  0.8057 -0.2755 -0.2668
 2360SOL     OW 9073   6.596   1.385   2.277 -0.0541 -0.3025 -0.4322
 2360SOL    HW1 9074   6.540   1.307   2.272  2.4936 -2.2321 -0.9104
 2360SOL    HW2 9075   6.634   1.393   2.190  0.9301  0.5500  0.0632
 2361SOL     OW 9076   6.363   7.239   4.939  0.5403 -0.0750  0.4360
 2361SOL    HW1 9077   6.305   7.171   4.904  0.9399 -0.6358  0.8335
 2361SOL    HW2 9078   6.318   7.271   5.017 -0.2003  0.9518 -0.3929
 2362SOL     OW 9079   7.219   2.057   3.150  0.1995 -0.2847  0.1292
 2362SOL    HW1 9080   7.300   2.006   3.142  0.2078 -0.3081  0.3690
 2362SOL    HW2 9081   7.164   2.005   3.208 -0.0235 -0.3132 -0.1064
 2363SOL     OW 9082   7.271   1.023   6.260 -0.1018 -0.2563 -0.3724
 2363SOL    HW1 9083   7.234   0.994   6.177  1.3906  0.4937 -1.3388
 2363SOL    HW2 9084   7.317   1.105   6.240  2.0749 -1.1149  0.6996
 2364SOL     OW 9085   2.333   2.266   1.922  0.2754  0.3300  0.2922
 2364SOL    HW1 9086   2.308   2.177   1.896  0.1812  0.7942 -1.2664
 2364SOL    HW2 9087   2.250   2.311   1.934  0.3296  0.3554  0.5813
 2365SOL     OW 9088   6.829   2.634   1.672  0.4229  0.3393  0.3409
 2365SOL    HW1 9089   6.907   2.606   1.625  0.5305  0.6403  0.3402
 2365SOL    HW2 9090   6.813   2.564   1.736 -0.4115 -0.6647 -0.9017
 2366SOL     OW 9091   2.647   3.396   2.756  0.1552 -0.7380  0.4392
 2366SOL    HW1 9092   2.652   3.485   2.791 -2.6025 -0.1749 -0.3795
 2366SOL    HW2 9093   2.664   3.406   2.662  0.1066 -1.1271  0.3872
 2367SOL     OW 9094   8.192   3.596   5.197  0.0255  0.6501 -0.1156
 2367SOL    HW1 9095   8.164   3.564   5.111  0.6393 -0.2864  0.0236
 2367SOL    HW2 9096   8.110   3.600   5.248 -0.0618 -0.8641 -0.0962
 2368SOL     OW 9097   7.542   3.982   1.613  0.1385 -0.2724  0.1253
 2368SOL    HW1 9098   7.529   4.044   1.685 -0.7318 -0.4107  0.0878
 2368SOL    HW2 9099   7.459   3.982   1.566  1.0481  0.7140 -1.5956
 2369SOL     OW 9100   3.768   8.088   6.904  0.1008 -0.2316  0.1457
 2369SOL    HW1 9101   3.705   8.044   6.847  0.5074  1.0213 -1.3477
 2369SOL    HW2 9102   3.725   8.171   6.927  0.2388 -0.4121  1.0868
 2370SOL     OW 9103   8.564   5.821   1.551  0.3908  0.1197  0.0596
 2370SOL    HW1 9104   8.531   5.852   1.466 -0.7898  0.3734  0.5898
 2370SOL    HW2 9105   8.549   5.727   1.550 -0.3660  0.2341  0.2975
 2371SOL     OW 9106   2.879   3.092   4.865  0.0579 -0.2197  0.4297
 2371SOL    HW1 9107   2.971   3.118   4.858  0.1033 -0.5428 -0.3116
 2371SOL    HW2 9108   2.876   3.033   4.940  0.4711 -0.2671  0.4117
 2372SOL     OW 9109   1.462   5.347   3.816  0.5931 -0.2750 -0.0388
 2372SOL    HW1 9110   1.429   5.417   3.760  2.1985  0.3157 -0.3179
 2372SOL    HW2 9111   1.384   5.309   3.856 -0.6941 -0.9136 -2.8762
 2373SOL     OW 9112   4.641   3.204   8.679  0.3951  0.0922 -0.0226
 2373SOL    HW1 9113   4.558   3.159   8.698  0.8054 -1.4596 -1.6416
 2373SOL    HW2 9114   4.667   3.171   8.593  2.3616  1.0636  0.1436
 2374SOL     OW 9115   4.315   7.032   0.230  0.0358  0.7817 -0.0916
 2374SOL    HW1 9116   4.231   6.988   0.235  0.7014 -0.5064  0.3265
 2374SOL    HW2 9117   4.344   7.039   0.321  1.5851 -1.2982 -0.3484
 2375SOL     OW 9118   4.050   3.109   8.792 -0.3489  0.1468  0.2052
 2375SOL    HW1 9119   4.097   3.026   8.785 -0.9315 -0.1344 -0.6893
 2375SOL    HW2 9120   4.097   3.159   8.858  0.6723 -0.4665 -0.0443
 2376SOL     OW 9121   8.489   7.152   8.884  0.2165  0.0836 -0.0357
 2376SOL    HW1 9122   8.430   7.076   8.885  0.8370 -0.4303 -1.1291
 2376SOL    HW2 9123   8.494   7.177   8.792 -0.1340  1.5966  0.3311
 2377SOL     OW 9124   1.635   6.895   3.253 -0.2654  0.3721 -0.2056
 2377SOL    HW1 9125   1.707   6.907   3.315 -0.4684  1.3177 -0.1279
 2377SOL    HW2 9126   1.616   6.983   3.221  1.2943 -0.3161 -3.3491
 2378SOL     OW 9127   7.119   7.039   6.492 -0.0819  0.1207 -0.0879
 2378SOL    HW1 9128   7.027   7.020   6.513 -0.4703  2.2010  0.4074
 2378SOL    HW2 9129   7.120   7.051   6.397 -0.0858 -0.9424 -0.2322
 2379SOL     OW 9130   0.107   8.888   1.379  0.0935  0.1065  0.1931
 2379SOL    HW1 9131   0.039   8.923   1.322 -0.1890 -1.4820 -0.4912
 2379SOL    HW2 9132   0.099   8.939   1.460 -1.8299  0.0472  0.0821
 2380SOL     OW 9133   2.868   3.542   6.771 -0.4965 -0.1610 -0.4495
 2380SOL    HW1 9134   2.829   3.474   6.716 -2.6315 -0.5386  1.3880
 2380SOL    HW2 9135   2.863   3.621   6.718  2.3649 -1.3539 -2.7735
 2381SOL     OW 9136   5.531   5.713   1.523  0.4524 -0.0901  0.1333
 2381SOL    HW1 9137   5.564   5.763   1.448  0.5184  1.4953  1.1546
 2381SOL    HW2 9138   5.594   5.642   1.534 -0.0540 -0.8990 -1.8359
 2382SOL     OW 9139   6.825   4.251   5.302 -0.1919 -0.0610  0.2397
 2382SOL    HW1 9140   6.828   4.226   5.210  0.2639  1.1320 -0.0918
 2382SOL    HW2 9141   6.905   4.215   5.340 -0.0702 -0.0162  0.0253
 2383SOL     OW 9142   8.318   4.244   8.723  0.0063 -0.0156  0.0958
 2383SOL    HW1 9143   8.260   4.291   8.662  0.6309  0.5728 -0.0572
 2383SOL    HW2 9144   8.330   4.306   8.796 -1.5612 -1.0963  1.3395
 2384SOL     OW 9145   3.836   2.241   7.068 -0.0669 -0.0236 -0.0405
 2384SOL    HW1 9146   3.752   2.226   7.110  0.2358  0.9936  0.9843
 2384SOL    HW2 9147   3.818   2.305   6.999 -0.0225  0.7007  0.6160
 2385SOL     OW 9148   1.259   8.158   8.667  0.0342  0.4048 -0.6082
 2385SOL    HW1 9149   1.194   8.219   8.702  0.1126 -0.3438  0.9379
 2385SOL    HW2 9150   1.208   8.089   8.625 -0.1125  0.5208 -0.6198
 2386SOL     OW 9151   7.034   2.650   8.663 -0.0095 -0.3601 -0.4507
 2386SOL    HW1 9152   7.110   2.606   8.699  2.1920  1.8708 -2.0190
 2386SOL    HW2 9153   7.048   2.648   8.568 -1.6549  0.5838 -0.7527
 2387SOL     OW 9154   1.320   5.601   7.533 -0.0151 -0.0185 -0.2543
 2387SOL    HW1 9155   1.289   5.614   7.623  0.3105 -2.4012  0.2830
 2387SOL    HW2 9156   1.394   5.660   7.524  0.4388 -0.2997  1.3451
 2388SOL     OW 9157   3.062   4.679   6.168  0.4758 -0.2476  0.4951
 2388SOL    HW1 9158   3.157   4.690   6.170  0.4441 -0.0876  1.6734
 2388SOL    HW2 9159   3.044   4.611   6.232 -0.2682  0.2409  0.8202
 2389SOL     OW 9160   0.563   3.996   5.216  0.3884 -0.1999 -0.4639
 2389SOL    HW1 9161   0.597   4.054   5.148 -2.3693 -0.1208 -1.8893
 2389SOL    HW2 9162   0.504   3.937   5.170 -0.8599 -0.7710  1.7280
 2390SOL     OW 9163   7.966   5.031   0.001  0.0297 -0.5627  0.2399
 2390SOL    HW1 9164   7.939   5.105  -0.053 -0.8672 -0.8220  0.3093
 2390SOL    HW2 9165   7.892   5.017   0.061 -0.0963 -1.8875 -0.1766
 2391SOL     OW 9166   2.982   6.818   7.075 -0.2645  0.1385 -0.0494
 2391SOL    HW1 9167   2.970   6.757   7.002  2.6391 -0.9565  0.2446
 2391SOL    HW2 9168   2.921   6.788   7.142  1.0859 -2.6030  0.1088
 2392SOL     OW 9169   4.907   7.579   3.833  0.0912 -0.1138  0.2375
 2392SOL    HW1 9170   4.918   7.517   3.761  0.3185 -2.6802  2.3163
 2392SOL    HW2 9171   4.991   7.577   3.879 -0.3821  0.6655  1.1657
 2393SOL     OW 9172   0.613   5.836   8.389 -0.0689 -0.1485  1.0570
 2393SOL    HW1 9173   0.547   5.868   8.451 -0.1479 -0.0341  0.9120
 2393SOL    HW2 9174   0.563   5.783   8.327 -0.6369  2.7846 -1.1903
 2394SOL     OW 9175   1.187   7.097   7.141 -0.8904  0.4599  0.2954
 2394SOL    HW1 9176   1.185   7.019   7.197  2.5822 -1.7362 -2.1655
 2394SOL    HW2 9177   1.107   7.090   7.088 -1.1020 -0.9409  0.7506
 2395SOL     OW 9178   4.316   8.824   1.138 -0.4695  0.1246  0.7631
 2395SOL    HW1 9179   4.340   8.733   1.157  1.7294  0.9999  2.6515
 2395SOL    HW2 9180   4.307   8.827   1.043  1.0214 -1.7182  0.5073
 2396SOL     OW 9181   0.149   5.305   2.631  0.1635  0.0826 -0.1997
 2396SOL    HW1 9182   0.060   5.332   2.608 -0.2000  0.0490  1.0923
 2396SOL    HW2 9183   0.145   5.210   2.641  0.2504  0.1147  0.1908
 2397SOL     OW 9184   0.116   1.511   3.487 -1.0771 -0.3484  0.3164
 2397SOL    HW1 9185   0.202   1.520   3.446 -0.8183  0.0898  0.9359
 2397SOL    HW2 9186   0.126   1.551   3.574 -1.4279 -1.8314  1.0686
 2398SOL     OW 9187   3.190   8.269   3.171  0.3433 -0.3992 -0.0367
 2398SOL    HW1 9188   3.241   8.349   3.161  0.0934 -0.4383 -2.1960
 2398SOL    HW2 9189   3.186   8.254   3.265 -0.0539  2.3962  0.4782
 2399SOL     OW 9190   0.353   1.441   4.005  0.0515 -0.3575 -0.0035
 2399SOL    HW1 9191   0.311   1.511   4.054  0.4735 -0.0607 -0.0624
 2399SOL    HW2 9192   0.372   1.373   4.070  0.3772 -0.0743  0.1981
 2400SOL     OW 9193   7.732   7.440   1.377 -0.0592 -0.1230 -0.6816
 2400SOL    HW1 9194   7.705   7.377   1.444  0.4964 -0.6360 -0.9291
 2400SOL    HW2 9195   7.685   7.520   1.400 -0.3885 -0.4783 -0.0657
 2401SOL     OW 9196   1.559   6.452   0.736  0.1081  0.0029  0.0811
 2401SOL    HW1 9197   1.479   6.481   0.781  0.2333  1.0454 -0.3502
 2401SOL    HW2 9198   1.622   6.521   0.753  0.4759 -0.1047 -0.8212
 2402SOL     OW 9199   7.563   1.500   1.910 -0.1201 -0.5224  0.1548
 2402SOL    HW1 9200   7.529   1.570   1.965  0.2151  0.8565 -1.3402
 2402SOL    HW2 9201   7.641   1.536   1.868 -0.7025 -1.2724 -1.7036
 2403SOL     OW 9202   1.358   0.093   5.742 -0.4004 -0.4454  0.0152
 2403SOL    HW1 9203   1.283   0.049   5.783 -0.2872 -0.0055  0.7218
 2403SOL    HW2 9204   1.319   0.158   5.684 -0.5745 -0.1652  0.4389
 2404SOL     OW 9205   7.891   6.934   7.855  0.3060 -0.0329 -0.0523
 2404SOL    HW1 9206   7.903   6.980   7.937 -1.3754  2.1634 -0.9371
 2404SOL    HW2 9207   7.849   6.998   7.797  0.4813 -1.8066 -2.2990
 2405SOL     OW 9208   8.840   0.720   0.259  0.1002  0.3549  0.1854
 2405SOL    HW1 9209   8.919   0.672   0.233  0.4511  0.0974  1.6364
 2405SOL    HW2 9210   8.861   0.811   0.242 -0.6151  0.0706 -2.7303
 2406SOL     OW 9211   2.563   3.747   4.289 -0.2359 -0.3502 -0.5821
 2406SOL    HW1 9212   2.548   3.657   4.259 -0.1064 -0.7284  0.4727
 2406SOL    HW2 9213   2.544   3.801   4.212  2.7862 -1.4493 -2.2761
 2407SOL     OW 9214   0.021   8.408   6.013  0.2396 -0.0062 -0.1601
 2407SOL    HW1 9215   0.002   8.377   5.924  1.5237 -0.3868 -0.3260
 2407SOL    HW2 9216   0.031   8.503   6.003  1.6721 -0.1816 -0.7065
 2408SOL     OW 9217   6.607   2.669   6.159  0.6354  0.7022  0.0058
 2408SOL    HW1 9218   6.690   2.633   6.127 -0.2759 -1.6160  0.0140
 2408SOL    HW2 9219   6.543   2.643   6.093 -0.8320 -1.9030  2.2256
 2409SOL     OW 9220   5.446   3.486   6.889 -0.0782  0.0773 -0.2432
 2409SOL    HW1 9221   5.433   3.482   6.794  2.0612  1.2045 -0.6607
 2409SOL    HW2 9222   5.538   3.460   6.901  0.2068  1.6542  1.3206
 2410SOL     OW 9223   8.709   8.519   5.772  0.0154  0.0428  0.1438
 2410SOL    HW1 9224   8.634   8.474   5.809 -0.5143  1.3932  0.7643
 2410SOL    HW2 9225   8.722   8.596   5.828  0.3893  1.0946 -1.3152
 2411SOL     OW 9226   6.050   1.782   7.188 -0.0398 -0.0350  0.2920
 2411SOL    HW1 9227   5.989   1.775   7.114  0.1215  1.1379  0.0251
 2411SOL    HW2 9228   6.013   1.853   7.241  0.5393 -0.0070  0.6556
 2412SOL     OW 9229   7.654   4.317   8.134 -0.4666  0.1436 -0.0336
 2412SOL    HW1 9230   7.630   4.390   8.078  1.2664 -0.9078 -2.3067
 2412SOL    HW2 9231   7.715   4.355   8.198 -0.2459  0.8528 -0.6487
 2413SOL     OW 9232   3.900   5.884   8.380 -0.1199 -0.4733  0.4599
 2413SOL    HW1 9233   3.857   5.921   8.303  1.2061 -0.1410 -0.1525
 2413SOL    HW2 9234   3.846   5.912   8.454  0.1306  1.6045 -0.1024
 2414SOL     OW 9235   0.630   3.450   0.963  0.4676 -0.5732 -0.5199
 2414SOL    HW1 9236   0.554   3.497   0.996  0.4694 -1.6591  1.1139
 2414SOL    HW2 9237   0.595   3.365   0.935  1.0882 -1.1257  0.3586
 2415SOL     OW 9238   0.487   8.870   8.839 -0.3388 -0.1802  0.0715
 2415SOL    HW1 9239   0.553   8.803   8.854 -0.8188 -0.7144 -0.1483
 2415SOL    HW2 9240   0.418   8.851   8.903 -0.2342  0.4385  0.3768
 2416SOL     OW 9241   1.715   1.779   4.239  0.1603 -0.0343 -0.2853
 2416SOL    HW1 9242   1.737   1.729   4.318 -1.2073 -1.3686 -0.7082
 2416SOL    HW2 9243   1.622   1.797   4.247  0.7245  3.4215  0.3201
 2417SOL     OW 9244   4.863   5.765   0.576 -0.4537  0.5659 -0.0135
 2417SOL    HW1 9245   4.946   5.769   0.528 -0.7840 -0.6431 -0.7283
 2417SOL    HW2 9246   4.803   5.820   0.526 -0.9986 -1.2541 -1.4743
 2418SOL     OW 9247   4.770   4.254   7.879 -0.3278 -0.2937  0.4300
 2418SOL    HW1 9248   4.762   4.187   7.812 -0.3593  0.9979 -0.9025
 2418SOL    HW2 9249   4.839   4.222   7.938 -0.3579 -1.4835 -0.1736
 2419SOL     OW 9250   6.343   0.436   8.768 -0.4363  0.2795  0.2747
 2419SOL    HW1 9251   6.257   0.396   8.781 -0.9139  1.1702 -0.1031
 2419SOL    HW2 9252   6.342   0.515   8.823 -0.0087  0.5079 -0.0412
 2420SOL     OW 9253   2.805   3.675   1.798 -0.4631  0.0592  0.2547
 2420SOL    HW1 9254   2.778   3.599   1.748 -0.6689 -0.7939  1.6164
 2420SOL    HW2 9255   2.883   3.647   1.845  1.8198  1.9088 -2.1522
 2421SOL     OW 9256   1.541   6.910   4.213  0.1740  0.0022  0.0047
 2421SOL    HW1 9257   1.532   7.005   4.205 -1.7891 -0.2277 -1.4777
 2421SOL    HW2 9258   1.572   6.896   4.302  0.1088  2.0182  0.3869
 2422SOL     OW 9259   3.916   7.422   8.303  0.2446 -0.8439  0.1396
 2422SOL    HW1 9260   4.002   7.424   8.346  1.8369  2.6525 -2.7049
 2422SOL    HW2 9261   3.896   7.329   8.294  3.4589 -1.7898  1.4422
 2423SOL     OW 9262   0.464   6.242   8.422  0.0666 -0.6991 -0.2757
 2423SOL    HW1 9263   0.426   6.164   8.462 -1.5858  0.5521  0.7219
 2423SOL    HW2 9264   0.532   6.270   8.484 -2.5970  1.3307  1.9592
 2424SOL     OW 9265   3.612   7.392   3.155  0.0394  0.0190  0.1083
 2424SOL    HW1 9266   3.664   7.452   3.102 -0.5369  0.3711 -0.0546
 2424SOL    HW2 9267   3.522   7.418   3.141 -0.0958  0.7888  2.0436
 2425SOL     OW 9268   6.741   6.259   1.211  0.2446 -0.4285  0.3742
 2425SOL    HW1 9269   6.708   6.189   1.155  0.7083  0.0476 -0.5210
 2425SOL    HW2 9270   6.690   6.336   1.185 -0.1446 -0.3970  1.2269
 2426SOL     OW 9271   5.452   8.001   7.960 -0.5149  0.4822  0.3016
 2426SOL    HW1 9272   5.370   8.045   7.984  1.0552  2.8499  1.7401
 2426SOL    HW2 9273   5.520   8.057   7.995  1.7743 -1.4240 -0.8273
 2427SOL     OW 9274   1.112   3.169   4.929  0.5247  0.5834 -0.5859
 2427SOL    HW1 9275   1.159   3.119   4.863  1.2019 -2.4398  1.9463
 2427SOL    HW2 9276   1.181   3.215   4.977  0.6843 -1.2928  1.1008
 2428SOL     OW 9277   5.847   8.855   4.828  0.2809 -0.4804 -0.4838
 2428SOL    HW1 9278   5.880   8.766   4.840  0.5082 -0.6432 -2.0635
 2428SOL    HW2 9279   5.923   8.911   4.844  0.4678 -0.6559 -0.7424
 2429SOL     OW 9280   5.042   3.582   7.148 -0.2483 -0.3021  0.5747
 2429SOL    HW1 9281   4.993   3.634   7.084 -1.7787 -0.0580  1.8712
 2429SOL    HW2 9282   5.133   3.606   7.133 -0.5933  0.1224 -1.1577
 2430SOL     OW 9283   5.171   6.718   3.689 -0.2359 -0.2289 -0.5402
 2430SOL    HW1 9284   5.229   6.776   3.739 -0.5321 -0.9511  0.6868
 2430SOL    HW2 9285   5.220   6.637   3.680 -0.5943 -0.4488 -0.5325
 2431SOL     OW 9286   7.035   1.707   3.197  0.3558 -0.0635  0.4402
 2431SOL    HW1 9287   6.941   1.690   3.190  0.3474  0.2361 -0.2125
 2431SOL    HW2 9288   7.063   1.654   3.272  0.0674 -1.8963 -0.6911
 2432SOL     OW 9289   0.325   2.349   8.790 -0.0210  0.3950 -0.3223
 2432SOL    HW1 9290   0.240   2.328   8.752  0.0272  0.8732 -0.6997
 2432SOL    HW2 9291   0.314   2.334   8.884 -0.1095 -0.9092 -0.5189
 2433SOL     OW 9292   0.538   2.425   5.476  0.1035  0.5597  0.4573
 2433SOL    HW1 9293   0.475   2.495   5.459 -1.8229 -1.1972  0.0981
 2433SOL    HW2 9294   0.508   2.352   5.423  2.0287 -0.5992  0.8807
 2434SOL     OW 9295   2.567   7.801   6.233 -0.2611  0.1816  0.3217
 2434SOL    HW1 9296   2.631   7.826   6.299 -1.3547  3.0717  0.4323
 2434SOL    HW2 9297   2.483   7.832   6.267 -2.1001 -4.2579  0.6382
 2435SOL     OW 9298   2.152   4.400   4.921 -0.5390  0.0441  0.4583
 2435SOL    HW1 9299   2.189   4.418   5.007 -2.9087  1.0534  1.3304
 2435SOL    HW2 9300   2.155   4.485   4.876 -0.4677 -0.2029 -0.0105
 2436SOL     OW 9301   7.860   6.499   5.665 -0.4100  0.4743  0.3601
 2436SOL    HW1 9302   7.907   6.479   5.746  0.9044 -0.2541 -0.5563
 2436SOL    HW2 9303   7.814   6.581   5.685 -0.2094  0.2579  1.8756
 2437SOL     OW 9304   2.209   1.943   0.288  0.3072  0.0577 -0.0753
 2437SOL    HW1 9305   2.256   2.024   0.269  0.1623 -0.3715 -2.6193
 2437SOL    HW2 9306   2.177   1.954   0.378  1.8221  2.0284  0.2883
 2438SOL     OW 9307   8.289   6.757   8.338 -0.6659 -0.6233  0.0875
 2438SOL    HW1 9308   8.224   6.742   8.406 -2.0399  1.5958 -0.6406
 2438SOL    HW2 9309   8.277   6.849   8.312  1.5063 -0.6671 -1.3895
 2439SOL     OW 9310   2.637   7.818   0.459  0.3549  0.6082 -0.1807
 2439SOL    HW1 9311   2.543   7.833   0.459  0.5513  2.9318 -3.3587
 2439SOL    HW2 9312   2.650   7.745   0.399  0.5875  0.3499  0.1810
 2440SOL     OW 9313   6.467   6.354   5.109  0.3262  0.0715 -0.2813
 2440SOL    HW1 9314   6.525   6.414   5.062 -0.0039  0.3782 -0.3003
 2440SOL    HW2 9315   6.493   6.267   5.079  1.1090  0.1704  0.0820
 2441SOL     OW 9316   0.095   4.740   4.381  0.4028 -0.4524 -0.0683
 2441SOL    HW1 9317   0.163   4.676   4.402 -0.7077 -1.1117  1.7352
 2441SOL    HW2 9318   0.040   4.697   4.316  0.2838 -0.9379  0.3458
 2442SOL     OW 9319   4.316   1.300   4.264  0.2504  0.0759 -0.4027
 2442SOL    HW1 9320   4.389   1.305   4.325 -1.4409  0.1807  1.7361
 2442SOL    HW2 9321   4.339   1.360   4.193  2.4477 -0.3303 -0.0894
 2443SOL     OW 9322   4.950   4.347   6.963  0.3453  0.0832  0.0622
 2443SOL    HW1 9323   5.001   4.339   7.044 -1.7325  0.4856  1.4848
 2443SOL    HW2 9324   4.925   4.439   6.959 -1.0923 -0.2933 -0.0602
 2444SOL     OW 9325   1.751   3.523   0.637  0.2624  0.2792 -0.1519
 2444SOL    HW1 9326   1.663   3.491   0.618  0.0062  0.8894 -0.0314
 2444SOL    HW2 9327   1.809   3.451   0.612 -0.2281  0.1124 -0.8378
 2445SOL     OW 9328   7.592   8.018   1.358  0.3652  0.4414  0.0686
 2445SOL    HW1 9329   7.516   8.007   1.300 -0.1432 -0.9275  0.9219
 2445SOL    HW2 9330   7.655   7.954   1.325 -0.0410 -0.5555  1.1478
 2446SOL     OW 9331   8.056   5.900   2.856  0.1273  0.3625 -0.1641
 2446SOL    HW1 9332   8.101   5.933   2.779  1.9035  1.0135  1.0770
 2446SOL    HW2 9333   8.085   5.809   2.864  0.3654  0.4536  0.0231
 2447SOL     OW 9334   5.230   6.236   8.275 -0.5645  0.2192  0.3941
 2447SOL    HW1 9335   5.312   6.244   8.226 -0.7595 -1.5928 -0.2786
 2447SOL    HW2 9336   5.238   6.301   8.345  1.0726  0.6706 -0.1762
 2448SOL     OW 9337   3.922   1.523   5.409  0.1605 -0.2271 -0.1182
 2448SOL    HW1 9338   3.841   1.567   5.381 -0.5326 -0.5646  1.3093
 2448SOL    HW2 9339   3.974   1.516   5.328 -0.4497  1.6110 -0.7295
 2449SOL     OW 9340   3.685   5.054   6.980 -0.4143 -0.2733  0.2401
 2449SOL    HW1 9341   3.629   5.041   7.057  0.5574  0.0282  1.0243
 2449SOL    HW2 9342   3.715   5.145   6.987  0.7159 -0.6232  0.2308
 2450SOL     OW 9343   6.981   2.542   6.965  0.0742  0.0242  0.2275
 2450SOL    HW1 9344   7.021   2.574   6.884  0.9351 -2.5004 -0.4318
 2450SOL    HW2 9345   7.053   2.540   7.028 -0.1475  0.1476  0.4869
 2451SOL     OW 9346   1.227   7.485   5.511  0.6053  0.2694  0.3789
 2451SOL    HW1 9347   1.264   7.438   5.437  1.3674 -1.3183  1.7243
 2451SOL    HW2 9348   1.140   7.446   5.524 -0.0787  1.4340 -0.4309
 2452SOL     OW 9349   3.565   1.441   4.043 -0.2653 -0.0789  0.0542
 2452SOL    HW1 9350   3.489   1.498   4.032 -0.8179 -1.1572 -2.5985
 2452SOL    HW2 9351   3.548   1.391   4.123 -2.4014 -0.3040 -0.5001
 2453SOL     OW 9352   1.776   7.217   6.734  0.6365 -0.1290  0.2039
 2453SOL    HW1 9353   1.726   7.159   6.792 -0.7615  1.0571  0.2361
 2453SOL    HW2 9354   1.794   7.294   6.787  1.5674 -0.0877 -0.1607
 2454SOL     OW 9355   4.397   1.386   7.249 -0.1158 -0.7403 -0.0408
 2454SOL    HW1 9356   4.441   1.367   7.166 -1.8671 -2.3734 -0.6530
 2454SOL    HW2 9357   4.334   1.315   7.260 -1.3717  0.5556  1.6748
 2455SOL     OW 9358   6.152   3.427   3.455  0.2608  0.2288 -0.4841
 2455SOL    HW1 9359   6.085   3.378   3.408 -0.4753  0.4019  0.3595
 2455SOL    HW2 9360   6.234   3.401   3.414 -0.2704 -0.4501 -1.1341
 2456SOL     OW 9361   3.884   1.412   1.657 -0.7984 -0.7205  0.2535
 2456SOL    HW1 9362   3.937   1.492   1.656 -2.1179  0.1996 -1.1288
 2456SOL    HW2 9363   3.947   1.341   1.665  0.5064  0.4050  0.3028
 2457SOL     OW 9364   8.041   5.669   0.620  0.4640  0.1276 -0.5341
 2457SOL    HW1 9365   8.095   5.620   0.558 -2.1771  0.6816 -3.5518
 2457SOL    HW2 9366   8.003   5.740   0.568 -0.8752  1.5064  2.1024
 2458SOL     OW 9367   1.990   3.247   8.113 -0.0037 -0.0741 -0.6659
 2458SOL    HW1 9368   1.937   3.182   8.160  0.9202 -1.2627 -1.2226
 2458SOL    HW2 9369   2.080   3.218   8.125  0.4715  1.3342 -0.6170
 2459SOL     OW 9370   5.473   0.301   4.879  0.2948 -1.0274 -0.4567
 2459SOL    HW1 9371   5.379   0.302   4.860  0.1145  0.2166  0.4272
 2459SOL    HW2 9372   5.513   0.264   4.800 -0.8862 -1.0968 -1.0372
 2460SOL     OW 9373   6.346   8.562   1.919 -0.0942 -0.3523  0.0587
 2460SOL    HW1 9374   6.256   8.592   1.910  0.0750  0.3968  0.6730
 2460SOL    HW2 9375   6.342   8.493   1.985  0.0278  1.0814  1.6392
 2461SOL     OW 9376   1.810   8.507   6.233  0.3400 -0.6109 -0.3795
 2461SOL    HW1 9377   1.730   8.554   6.257  0.7766 -0.0584  0.0193
 2461SOL    HW2 9378   1.844   8.556   6.157 -0.0662 -1.2682 -1.0026
 2462SOL     OW 9379   0.821   8.485   7.300  0.1774  0.1636  0.0120
 2462SOL    HW1 9380   0.909   8.515   7.321  0.2789  0.3111 -0.6018
 2462SOL    HW2 9381   0.789   8.547   7.235 -0.3397  0.0473  0.1455
 2463SOL     OW 9382   5.512   6.077   8.350  0.1096  0.0873 -0.1514
 2463SOL    HW1 9383   5.492   5.989   8.382  0.2804 -0.2791 -1.0242
 2463SOL    HW2 9384   5.529   6.065   8.256 -0.1691  1.1007 -0.3390
 2464SOL     OW 9385   0.063   3.394   3.782 -0.7921 -0.1026  0.4024
 2464SOL    HW1 9386   0.132   3.332   3.757 -1.1926 -0.3745 -0.0376
 2464SOL    HW2 9387   0.003   3.395   3.707 -0.7065  0.9431  0.3354
 2465SOL     OW 9388   6.336   7.296   1.762 -0.1583 -0.1455 -0.1034
 2465SOL    HW1 9389   6.411   7.324   1.815 -0.6841 -1.5207  1.4197
 2465SOL    HW2 9390   6.277   7.372   1.763  0.2639  0.1858  0.4819
 2466SOL     OW 9391   1.026   3.320   8.465 -0.2038  0.2137  0.1448
 2466SOL    HW1 9392   1.037   3.243   8.520  0.1928 -1.5315 -2.2169
 2466SOL    HW2 9393   1.115   3.345   8.440 -0.3938  0.6563 -0.1086
 2467SOL     OW 9394   2.644   0.800   4.433  0.4351  0.1467 -0.0911
 2467SOL    HW1 9395   2.739   0.814   4.439  0.6846 -1.5938  0.5712
 2467SOL    HW2 9396   2.635   0.734   4.364 -0.1404 -0.9027  0.9641
 2468SOL     OW 9397   3.338   5.498   8.772  0.3229 -0.0295  0.4441
 2468SOL    HW1 9398   3.360   5.496   8.866  0.1671  1.9722  0.5552
 2468SOL    HW2 9399   3.308   5.587   8.756 -0.3715 -0.5511 -1.3758
 2469SOL     OW 9400   3.491   1.156   4.144  0.0607 -0.2075 -0.2326
 2469SOL    HW1 9401   3.573   1.134   4.187  0.5309  1.6757 -0.1013
 2469SOL    HW2 9402   3.477   1.084   4.082  1.8879 -0.4970 -0.3757
 2470SOL     OW 9403   0.399   0.220   1.316 -0.2814  0.0242 -0.6194
 2470SOL    HW1 9404   0.397   0.140   1.264 -2.5433 -0.5533  0.2767
 2470SOL    HW2 9405   0.372   0.193   1.404 -1.2196  1.7775 -0.3236
 2471SOL     OW 9406   0.241   6.163   5.772  0.0438 -0.1886  0.0954
 2471SOL    HW1 9407   0.183   6.212   5.713 -0.1018 -0.8839 -0.3538
 2471SOL    HW2 9408   0.271   6.088   5.719  0.8588 -0.1748  0.5243
 2472SOL     OW 9409   5.741   1.175   3.512 -0.1840 -0.0057  0.2294
 2472SOL    HW1 9410   5.816   1.220   3.549 -0.7670  1.6002 -0.4385
 2472SOL    HW2 9411   5.666   1.229   3.536 -0.9175 -0.5781 -0.6665
 2473SOL     OW 9412   5.581   1.911   5.223 -0.4570  0.4314 -0.4511
 2473SOL    HW1 9413   5.655   1.860   5.191  1.3086  1.6891  1.3983
 2473SOL    HW2 9414   5.525   1.923   5.146  1.1612 -0.6603 -1.8702
 2474SOL     OW 9415   5.467   0.738   2.000 -0.2572 -0.8434 -0.3368
 2474SOL    HW1 9416   5.472   0.667   2.063 -1.0441 -0.3901  0.2531
 2474SOL    HW2 9417   5.557   0.752   1.972 -0.1160 -2.2341 -0.6593
 2475SOL     OW 9418   7.199   3.887   1.375  0.7775 -0.0898 -0.1126
 2475SOL    HW1 9419   7.136   3.887   1.304  0.4896  0.2073  0.1377
 2475SOL    HW2 9420   7.284   3.873   1.333  0.6933  0.7838 -0.5976
 2476SOL     OW 9421   2.811   3.805   1.240  0.1298  0.1797  0.0425
 2476SOL    HW1 9422   2.880   3.871   1.233  2.3387 -2.0887 -1.1001
 2476SOL    HW2 9423   2.799   3.792   1.334  0.9541  0.9015  0.2541
 2477SOL     OW 9424   3.348   0.391   3.363 -0.1462 -0.0901 -0.9020
 2477SOL    HW1 9425   3.273   0.448   3.375 -0.3633 -0.2079 -1.6089
 2477SOL    HW2 9426   3.311   0.311   3.324  0.0559 -0.9739  0.6335
 2478SOL     OW 9427   2.490   5.057   6.206  0.4806  0.8137 -0.4387
 2478SOL    HW1 9428   2.421   5.076   6.143 -1.0343  0.6025  1.0796
 2478SOL    HW2 9429   2.445   5.054   6.291  2.1016 -0.7997  0.4386
 2479SOL     OW 9430   3.910   3.043   6.217 -0.0525 -0.7601  0.0596
 2479SOL    HW1 9431   3.895   3.055   6.310 -0.8678 -2.1341  0.1282
 2479SOL    HW2 9432   3.826   3.012   6.183 -0.1585  0.8918 -1.3772
 2480SOL     OW 9433   3.806   3.938   7.762  0.5812 -0.2549 -0.2454
 2480SOL    HW1 9434   3.719   3.948   7.723  0.2681  0.1446  0.5190
 2480SOL    HW2 9435   3.788   3.914   7.853  1.2560  0.2363  0.0253
 2481SOL     OW 9436   5.575   7.577   0.134 -0.2032  0.0827  0.5644
 2481SOL    HW1 9437   5.627   7.547   0.208 -1.6692  1.0750  2.0533
 2481SOL    HW2 9438   5.509   7.635   0.172 -0.2689  1.5916 -1.6643
 2482SOL     OW 9439   2.306   4.229   7.748 -0.3385  0.0444 -0.0509
 2482SOL    HW1 9440   2.230   4.181   7.782  0.4235 -1.6409 -0.6119
 2482SOL    HW2 9441   2.271   4.279   7.674 -0.9084 -0.7465 -0.3318
 2483SOL     OW 9442   0.353   5.898   5.692  0.1136 -0.2550  0.2329
 2483SOL    HW1 9443   0.391   5.897   5.604 -0.7738  1.4714 -0.2100
 2483SOL    HW2 9444   0.378   5.814   5.730 -1.8979 -2.3501 -2.6749
 2484SOL     OW 9445   4.432   1.193   6.495 -0.7181  0.0839 -0.0179
 2484SOL    HW1 9446   4.388   1.227   6.417  0.5674  1.0095 -0.3611
 2484SOL    HW2 9447   4.360   1.158   6.548 -1.9229  1.6249 -0.5152
 2485SOL     OW 9448   8.609   0.994   1.897 -0.2903  0.5850 -0.3679
 2485SOL    HW1 9449   8.557   1.000   1.816 -0.1006  0.6738 -0.4857
 2485SOL    HW2 9450   8.597   0.904   1.927 -1.8501  1.0624  0.5168
 2486SOL     OW 9451   4.497   3.371   8.387  0.0056  0.2265 -0.1430
 2486SOL    HW1 9452   4.431   3.412   8.330  1.5108  2.1902 -0.5989
 2486SOL    HW2 9453   4.478   3.277   8.382  0.2426  0.2095 -4.2102
 2487SOL     OW 9454   5.690   2.758   3.840 -0.2483 -0.4151 -0.7935
 2487SOL    HW1 9455   5.623   2.689   3.841 -0.7088  0.0296 -1.1037
 2487SOL    HW2 9456   5.674   2.807   3.920  0.5455 -1.0984 -0.1887
 2488SOL     OW 9457   4.040   2.981   4.569 -0.1349  0.5075 -0.0314
 2488SOL    HW1 9458   4.080   3.049   4.622  1.3142  0.9411 -1.5918
 2488SOL    HW2 9459   4.110   2.917   4.554 -1.2221 -0.8991  0.6487
 2489SOL     OW 9460   0.009   3.335   0.294  0.2796 -0.2656  0.2237
 2489SOL    HW1 9461  -0.069   3.340   0.238  0.8184 -0.0786 -0.5392
 2489SOL    HW2 9462   0.020   3.242   0.312  0.4328 -0.3921 -0.4848
 2490SOL     OW 9463   6.024   5.019   4.010 -0.2272  0.7757  0.0761
 2490SOL    HW1 9464   6.091   5.045   3.947  0.4290  0.5093  0.6499
 2490SOL    HW2 9465   6.012   5.096   4.066 -1.2906  1.2395 -0.7716
 2491SOL     OW 9466   5.131   5.380   4.520 -0.0822 -0.0397  0.4876
 2491SOL    HW1 9467   5.142   5.464   4.476  1.4517  0.3759  1.5774
 2491SOL    HW2 9468   5.099   5.402   4.607  2.2576 -0.3519  1.5013
 2492SOL     OW 9469   2.077   5.642   2.333  0.6253 -0.2949 -0.2991
 2492SOL    HW1 9470   2.167   5.666   2.312  0.3914  0.6260 -0.2993
 2492SOL    HW2 9471   2.075   5.639   2.429  0.8863 -1.2965 -0.3075
 2493SOL     OW 9472   7.358   6.173   7.829 -0.4078 -0.1154  0.3856
 2493SOL    HW1 9473   7.350   6.078   7.837  0.4134 -0.0346  2.5082
 2493SOL    HW2 9474   7.386   6.186   7.738  0.6628 -1.9711  0.3930
 2494SOL     OW 9475   2.920   0.334   5.845 -0.2972  0.1526  0.4405
 2494SOL    HW1 9476   2.975   0.279   5.900  0.1000  0.8230  0.7267
 2494SOL    HW2 9477   2.930   0.422   5.881  0.4287  0.7162 -1.0255
 2495SOL     OW 9478   7.416   7.687   4.209  0.6270 -0.1382  0.0723
 2495SOL    HW1 9479   7.437   7.779   4.229 -0.9945  0.1395  0.6881
 2495SOL    HW2 9480   7.403   7.686   4.114 -2.4308  1.0412  0.3652
 2496SOL     OW 9481   2.583   8.196   5.944 -0.3213  0.4302  0.1914
 2496SOL    HW1 9482   2.529   8.265   5.982  0.4041  1.2101 -0.1742
 2496SOL    HW2 9483   2.559   8.117   5.993 -2.7183  0.4716 -0.7713
 2497SOL     OW 9484   3.310   8.538   5.296  0.2785 -0.2577 -0.1756
 2497SOL    HW1 9485   3.324   8.461   5.350  4.2432  0.3100 -0.1106
 2497SOL    HW2 9486   3.280   8.605   5.357 -1.7511 -1.2403  0.0108
 2498SOL     OW 9487   5.295   5.831   0.197 -0.0935  0.0254 -0.1379
 2498SOL    HW1 9488   5.337   5.751   0.230  1.1105 -0.2218 -2.1192
 2498SOL    HW2 9489   5.344   5.902   0.237 -0.8826 -0.1943  1.2851
 2499SOL     OW 9490   2.654   7.737   6.548 -0.1755  0.0719  0.1276
 2499SOL    HW1 9491   2.642   7.832   6.549 -0.2154  0.0713 -0.2793
 2499SOL    HW2 9492   2.727   7.722   6.608  1.5826  0.6091 -1.8066
 2500SOL     OW 9493   0.579   6.587   1.330 -0.3937  0.2400 -0.0745
 2500SOL    HW1 9494   0.595   6.654   1.396 -0.5506 -0.9797  1.2366
 2500SOL    HW2 9495   0.666   6.561   1.301  0.1913 -3.4918  4.1126
 2501SOL     OW 9496   1.271   6.243   5.658  0.3013 -0.1147  0.1518
 2501SOL    HW1 9497   1.195   6.212   5.708 -1.9071  1.0533 -2.1899
 2501SOL    HW2 9498   1.272   6.187   5.580  0.5432  1.1634 -0.8041
 2502SOL     OW 9499   3.295   4.441   6.403  0.1662  0.2844  0.2956
 2502SOL    HW1 9500   3.217   4.388   6.389 -1.4866  3.1571 -2.9645
 2502SOL    HW2 9501   3.265   4.511   6.461  1.2140 -0.1588  1.4061
 2503SOL     OW 9502   6.764   4.269   3.800  0.0360 -0.2095 -0.1225
 2503SOL    HW1 9503   6.783   4.226   3.883  0.1350  2.0998  1.1169
 2503SOL    HW2 9504   6.811   4.217   3.735  1.6715 -0.8880  1.5235
 2504SOL     OW 9505   6.364   3.380   0.605  0.0023  0.1626  0.1048
 2504SOL    HW1 9506   6.308   3.326   0.661 -0.3681  0.5374  0.1052
 2504SOL    HW2 9507   6.443   3.328   0.592  0.5049  0.4743  1.7635
 2505SOL     OW 9508   2.860   8.080   1.009  0.0146 -0.3548  0.1093
 2505SOL    HW1 9509   2.775   8.111   0.977  1.1331 -0.0421 -2.9673
 2505SOL    HW2 9510   2.886   8.144   1.075 -1.0120  1.0873 -0.8085
 2506SOL     OW 9511   7.609   6.470   6.665 -0.0202 -0.4383 -0.0676
 2506SOL    HW1 9512   7.529   6.494   6.712 -0.8907 -0.9741 -1.2288
 2506SOL    HW2 9513   7.589   6.385   6.626  1.3647 -0.9047  0.1531
 2507SOL     OW 9514   7.769   8.690   4.320 -0.7551 -0.3978 -0.5377
 2507SOL    HW1 9515   7.857   8.687   4.280 -0.4498 -0.3977  0.1183
 2507SOL    HW2 9516   7.709   8.694   4.245 -0.1859 -0.1277 -0.9947
 2508SOL     OW 9517   2.502   1.655   0.930  0.1328 -0.1258 -0.7824
 2508SOL    HW1 9518   2.431   1.617   0.982  0.8885 -0.3249  0.1371
 2508SOL    HW2 9519   2.491   1.749   0.939  0.5435 -0.1549  0.1764
 2509SOL     OW 9520   3.445   1.884   2.836  0.2496  0.1169 -0.4937
 2509SOL    HW1 9521   3.483   1.932   2.763  0.6455 -0.5139 -0.7131
 2509SOL    HW2 9522   3.401   1.951   2.889 -0.1238  0.5637 -1.3501
 2510SOL     OW 9523   8.422   2.719   5.198  0.1480 -0.2828 -0.4814
 2510SOL    HW1 9524   8.413   2.657   5.125 -0.9816  0.9268 -1.4199
 2510SOL    HW2 9525   8.432   2.804   5.155 -0.0130  0.3880  0.7952
 2511SOL     OW 9526   5.996   8.008   8.027  0.1384 -0.0175 -0.2772
 2511SOL    HW1 9527   6.035   8.030   7.943  1.1927 -1.0876 -0.1045
 2511SOL    HW2 9528   6.018   7.915   8.039  0.8910  0.3569  1.6231
 2512SOL     OW 9529   8.108   0.086   1.570  0.0045  0.3933 -0.0860
 2512SOL    HW1 9530   8.024   0.121   1.600 -0.4354 -0.3626 -0.4218
 2512SOL    HW2 9531   8.119   0.005   1.620  0.4648  0.4212 -0.1420
 2513SOL     OW 9532   5.468   3.311   8.332  0.6137 -0.6207  0.9041
 2513SOL    HW1 9533   5.486   3.236   8.276  0.3307  1.1444 -1.7768
 2513SOL    HW2 9534   5.547   3.365   8.325  0.5049 -0.2786  2.1092
 2514SOL     OW 9535   6.641   7.053   7.007  0.2523  0.5441 -0.0799
 2514SOL    HW1 9536   6.615   7.142   6.985  2.9514  1.4675  0.1061
 2514SOL    HW2 9537   6.644   7.052   7.103  0.1001  0.1965 -0.0757
 2515SOL     OW 9538   1.792   3.024   4.874 -0.3959  0.7757 -0.5946
 2515SOL    HW1 9539   1.720   3.058   4.926  0.5558 -0.7934  1.9530
 2515SOL    HW2 9540   1.835   3.103   4.839 -2.2098  1.8066 -0.6252
 2516SOL     OW 9541   1.498   2.773   4.630 -0.5025  0.2598 -0.0940
 2516SOL    HW1 9542   1.546   2.694   4.603 -0.4311  0.2499  0.0630
 2516SOL    HW2 9543   1.493   2.826   4.550  1.6139  1.2333  0.3631
 2517SOL     OW 9544   1.219   1.300   1.627 -0.1927  0.0994  0.4274
 2517SOL    HW1 9545   1.183   1.218   1.661 -1.6202  0.4918 -0.0472
 2517SOL    HW2 9546   1.287   1.272   1.565 -1.4911 -0.7946 -0.6563
 2518SOL     OW 9547   5.977   7.326   5.720  0.6029 -0.3825  0.1301
 2518SOL    HW1 9548   5.969   7.356   5.629  0.4196  0.2688  0.3571
 2518SOL    HW2 9549   5.913   7.255   5.727  0.0160  0.1247 -0.0178
 2519SOL     OW 9550   1.909   6.156   5.637 -0.3073 -0.9020 -0.1284
 2519SOL    HW1 9551   1.857   6.181   5.561 -0.3836 -1.6047 -0.3102
 2519SOL    HW2 9552   1.882   6.218   5.705 -1.7044 -1.4964 -0.0985
 2520SOL     OW 9553   7.152   4.961   5.528 -0.4183 -0.1446 -0.5173
 2520SOL    HW1 9554   7.242   4.934   5.508 -0.1605  0.4791 -0.2446
 2520SOL    HW2 9555   7.103   4.879   5.534  0.2271 -0.5190 -0.2281
 2521SOL     OW 9556   5.136   7.903   5.125 -0.1201 -0.1602 -0.3748
 2521SOL    HW1 9557   5.230   7.899   5.140  0.1963  0.3808 -1.9783
 2521SOL    HW2 9558   5.127   7.955   5.045 -1.9120  1.7915  0.9777
 2522SOL     OW 9559   1.392   1.230   4.718 -0.4598 -0.4373  0.5734
 2522SOL    HW1 9560   1.481   1.203   4.694  0.0505  0.9968  0.7101
 2522SOL    HW2 9561   1.341   1.218   4.638 -0.1378 -1.2467  0.4830
 2523SOL     OW 9562   3.167   2.470   4.669  0.4533  0.0499  0.2490
 2523SOL    HW1 9563   3.200   2.473   4.758  1.0974  1.2884 -0.0133
 2523SOL    HW2 9564   3.149   2.377   4.653 -1.0894 -0.0228  2.1489
 2524SOL     OW 9565   2.732   7.348   4.132  0.0972  0.0323 -0.0127
 2524SOL    HW1 9566   2.748   7.442   4.145 -0.1458 -0.0763  1.1878
 2524SOL    HW2 9567   2.671   7.345   4.059  3.3264  0.5729 -2.9956
 2525SOL     OW 9568   4.513   8.659   2.792 -0.7720  0.2158 -0.3468
 2525SOL    HW1 9569   4.596   8.647   2.839 -0.0479  0.8865 -1.4057
 2525SOL    HW2 9570   4.494   8.753   2.801 -2.6751 -0.2937  1.8675
 2526SOL     OW 9571   0.654   1.450   2.910  0.1584 -0.0988  0.6160
 2526SOL    HW1 9572   0.650   1.522   2.973  0.7151  0.8110 -0.3548
 2526SOL    HW2 9573   0.744   1.417   2.917  0.6638  0.9058 -0.6203
 2527SOL     OW 9574   0.300   0.437   1.526  0.1499  0.0876  0.0371
 2527SOL    HW1 9575   0.323   0.478   1.443 -0.9027  0.8672  0.1294
 2527SOL    HW2 9576   0.316   0.504   1.592  1.7249 -0.7610  0.5965
 2528SOL     OW 9577   4.043   5.762   2.751 -0.2633  1.0994  0.5110
 2528SOL    HW1 9578   3.960   5.714   2.750 -0.2324  0.9922  1.8318
 2528SOL    HW2 9579   4.017   5.854   2.743 -0.6621  1.2043  2.4733
 2529SOL     OW 9580   3.306   1.192   7.496 -0.0839  0.3762 -0.2625
 2529SOL    HW1 9581   3.328   1.100   7.514  0.2548  0.8757  2.1875
 2529SOL    HW2 9582   3.391   1.235   7.486 -0.2490  0.3747 -1.9177
 2530SOL     OW 9583   6.320   8.183   8.888 -0.1652  0.0684  0.4243
 2530SOL    HW1 9584   6.280   8.097   8.872 -0.2707 -0.2211  2.0628
 2530SOL    HW2 9585   6.247   8.238   8.917 -0.2755  1.0169 -1.4780
 2531SOL     OW 9586   8.878   6.376   7.143  0.0457  0.2996  0.1957
 2531SOL    HW1 9587   8.841   6.434   7.209  0.7911 -0.4379  1.2842
 2531SOL    HW2 9588   8.809   6.312   7.125  0.4948 -0.6622  1.7108
 2532SOL     OW 9589   7.998   4.015   8.486  0.6217 -0.4173 -0.0209
 2532SOL    HW1 9590   7.996   3.965   8.567  2.5635 -1.1629 -0.3758
 2532SOL    HW2 9591   8.076   3.984   8.440  0.3666  0.9952 -1.5282
 2533SOL     OW 9592   3.933   1.475   6.913  0.2592 -0.3869 -0.1924
 2533SOL    HW1 9593   3.971   1.563   6.919 -0.8739  0.2303 -1.6018
 2533SOL    HW2 9594   3.970   1.438   6.834 -2.4238  0.4870 -1.9943
 2534SOL     OW 9595   4.507   1.530   8.412  0.6438 -0.2353  0.1843
 2534SOL    HW1 9596   4.579   1.475   8.379 -0.7541 -1.3973 -1.1028
 2534SOL    HW2 9597   4.521   1.615   8.371  0.4937 -0.8728 -1.2446
 2535SOL     OW 9598   2.957   2.240   0.219  0.4282 -0.3348  0.1156
 2535SOL    HW1 9599   2.980   2.227   0.127 -0.4200  0.7101 -0.2677
 2535SOL    HW2 9600   2.967   2.153   0.259 -1.2774 -1.3271 -1.4437
 2536SOL     OW 9601   5.811   6.312   5.895  0.0486  0.4584  0.8491
 2536SOL    HW1 9602   5.877   6.289   5.960 -1.5190 -2.0356  1.6929
 2536SOL    HW2 9603   5.836   6.263   5.816  0.5334  1.4662  0.3582
 2537SOL     OW 9604   2.409   6.958   6.669  0.9001  0.0492  0.3807
 2537SOL    HW1 9605   2.462   6.914   6.735  0.8933  0.2518  0.5231
 2537SOL    HW2 9606   2.462   6.956   6.590  0.8059 -0.4132  0.3277
 2538SOL     OW 9607   1.441   7.666   4.985 -0.2141 -0.1305 -0.3668
 2538SOL    HW1 9608   1.464   7.643   5.075 -1.3229 -2.0675 -0.5252
 2538SOL    HW2 9609   1.392   7.748   4.993 -0.2006 -0.2190  0.7778
 2539SOL     OW 9610   8.488   0.131   6.055  0.0925  0.2163 -0.0758
 2539SOL    HW1 9611   8.406   0.082   6.045 -1.0526  1.5497  1.9965
 2539SOL    HW2 9612   8.464   0.206   6.108  2.6073  0.9114  0.1874
 2540SOL     OW 9613   1.223   2.425   2.735 -0.2196 -0.0215 -0.2597
 2540SOL    HW1 9614   1.306   2.471   2.734  0.7690 -1.6901  0.6688
 2540SOL    HW2 9615   1.163   2.484   2.782  0.8365  0.5751  0.3731
 2541SOL     OW 9616   0.190   1.583   4.481 -0.2946 -0.5903 -0.0013
 2541SOL    HW1 9617   0.102   1.607   4.510 -0.6341  1.3367 -2.3793
 2541SOL    HW2 9618   0.176   1.515   4.415 -0.0948  0.3831 -1.0636
 2542SOL     OW 9619   5.811   5.833   5.545 -0.0433  0.5822  0.3631
 2542SOL    HW1 9620   5.888   5.858   5.493 -1.2850  0.5216 -1.5917
 2542SOL    HW2 9621   5.802   5.739   5.530 -2.0349  1.0125 -1.7182
 2543SOL     OW 9622   4.714   5.461   5.332 -0.7409 -0.4631 -0.2284
 2543SOL    HW1 9623   4.654   5.400   5.374 -0.6282 -1.4403 -1.4224
 2543SOL    HW2 9624   4.789   5.407   5.305 -0.4580  0.2641 -0.9585
 2544SOL     OW 9625   8.358   1.380   3.907 -0.4362 -0.1579  0.3652
 2544SOL    HW1 9626   8.264   1.400   3.903  0.0015  1.9473 -0.8364
 2544SOL    HW2 9627   8.382   1.361   3.816  0.2240 -1.2182  0.7432
 2545SOL     OW 9628   5.553   5.590   7.714  0.1210  0.3727 -0.1159
 2545SOL    HW1 9629   5.474   5.539   7.734  1.8671 -2.2670  0.5471
 2545SOL    HW2 9630   5.560   5.588   7.619  0.4135 -1.1073 -0.0820
 2546SOL     OW 9631   8.348   5.048   3.004  0.0606 -0.2748 -0.1958
 2546SOL    HW1 9632   8.351   5.128   2.951  1.5834 -0.7296 -0.8486
 2546SOL    HW2 9633   8.340   5.080   3.094  0.1152  0.6046 -0.4895
 2547SOL     OW 9634   4.762   0.995   1.381 -0.0484 -0.3987  0.2039
 2547SOL    HW1 9635   4.772   1.013   1.287 -1.9524 -0.3332 -0.0275
 2547SOL    HW2 9636   4.850   0.972   1.410  0.8415  0.8567 -1.3206
 2548SOL     OW 9637   2.836   7.952   5.510 -0.1029  0.4779 -0.5756
 2548SOL    HW1 9638   2.745   7.938   5.483 -0.7801  0.5700  1.4978
 2548SOL    HW2 9639   2.879   7.868   5.495 -0.7438  0.1839 -0.7968
 2549SOL     OW 9640   3.203   1.507   2.682  1.0706 -0.7998 -0.1600
 2549SOL    HW1 9641   3.169   1.418   2.683  0.7774 -0.6997  1.2818
 2549SOL    HW2 9642   3.125   1.563   2.680  1.2386 -0.5708 -0.4419
 2550SOL     OW 9643   2.198   2.622   3.176 -0.3927  0.1061 -0.4126
 2550SOL    HW1 9644   2.127   2.671   3.216 -1.2467  0.0169 -1.7698
 2550SOL    HW2 9645   2.155   2.549   3.131  0.5863 -0.1229 -1.0073
 2551SOL     OW 9646   2.901   7.423   0.687 -0.0759 -0.1209  0.1969
 2551SOL    HW1 9647   2.984   7.460   0.656  1.1750 -2.0995  1.0120
 2551SOL    HW2 9648   2.838   7.494   0.676  0.6910  0.1565 -4.6076
 2552SOL     OW 9649   7.714   2.787   0.507  0.3050 -0.3360 -0.1529
 2552SOL    HW1 9650   7.792   2.836   0.531  1.5259 -2.2753  0.0364
 2552SOL    HW2 9651   7.695   2.815   0.417  0.9997  0.3950 -0.0805
 2553SOL     OW 9652   7.850   2.021   8.238 -0.4418 -0.2577  0.0504
 2553SOL    HW1 9653   7.780   2.083   8.257 -0.3527 -0.7680  2.2220
 2553SOL    HW2 9654   7.806   1.946   8.200 -0.7821  0.2989 -0.6891
 2554SOL     OW 9655   8.402   3.284   4.483 -0.1380 -0.1853  0.1076
 2554SOL    HW1 9656   8.379   3.195   4.511  0.8996 -0.2590  0.7659
 2554SOL    HW2 9657   8.329   3.338   4.513 -0.0851 -0.5978  1.0054
 2555SOL     OW 9658   6.643   1.398   0.932  0.0336 -0.6843  0.0031
 2555SOL    HW1 9659   6.708   1.328   0.929 -1.8302 -2.5249  0.0600
 2555SOL    HW2 9660   6.629   1.413   1.025  0.5844 -0.0659 -0.0095
 2556SOL     OW 9661   3.925   8.203   7.116 -0.1634 -0.5784 -0.0955
 2556SOL    HW1 9662   3.876   8.142   7.061 -0.0422  0.5192 -1.4810
 2556SOL    HW2 9663   3.937   8.280   7.061  2.3030 -0.4269  0.5228
 2557SOL     OW 9664   6.030   7.182   7.605  0.2632 -0.0996  0.3349
 2557SOL    HW1 9665   6.111   7.144   7.639 -0.9837 -0.9860  2.5013
 2557SOL    HW2 9666   5.963   7.115   7.619 -0.9613  0.7732 -1.0003
 2558SOL     OW 9667   1.374   8.796   1.265 -0.6993  0.0008 -0.2139
 2558SOL    HW1 9668   1.327   8.726   1.309  2.7020 -2.7764 -0.6002
 2558SOL    HW2 9669   1.405   8.853   1.336 -0.3626 -1.0282  0.4815
 2559SOL     OW 9670   2.830   6.281   8.499 -0.8523  0.5440 -0.1456
 2559SOL    HW1 9671   2.773   6.298   8.424  0.2807 -2.2559 -1.8082
 2559SOL    HW2 9672   2.908   6.334   8.482 -0.3680 -0.4965 -1.3166
 2560SOL     OW 9673   6.734   3.677   0.848  0.4675  0.0022  0.3696
 2560SOL    HW1 9674   6.745   3.772   0.861  1.1158 -0.0963  0.5790
 2560SOL    HW2 9675   6.716   3.643   0.935 -1.2307  0.1084  0.0873
 2561SOL     OW 9676   2.194   6.620   0.253  0.1109  0.0940  0.1678
 2561SOL    HW1 9677   2.232   6.614   0.341 -1.0602  0.9971  0.7614
 2561SOL    HW2 9678   2.101   6.635   0.268 -0.2977 -0.8060 -1.2423
 2562SOL     OW 9679   6.099   5.578   3.321  0.3250 -0.3034 -0.1525
 2562SOL    HW1 9680   6.051   5.507   3.365  0.4953  0.0642  0.6336
 2562SOL    HW2 9681   6.191   5.557   3.335  0.4041 -0.6977 -1.1703
 2563SOL     OW 9682   5.182   6.441   4.378 -0.6618 -0.6008  0.2563
 2563SOL    HW1 9683   5.247   6.506   4.353  0.7282 -1.0954  2.3151
 2563SOL    HW2 9684   5.109   6.492   4.413  0.3248 -0.1007  1.6627
 2564SOL     OW 9685   4.483   1.761   5.763 -0.5579 -0.7325  0.1730
 2564SOL    HW1 9686   4.562   1.709   5.753 -0.3266 -0.4832  0.6615
 2564SOL    HW2 9687   4.424   1.707   5.816  0.1166 -0.0561  1.6573
 2565SOL     OW 9688   0.296   2.321   0.897 -0.3299 -0.5061  0.5987
 2565SOL    HW1 9689   0.270   2.270   0.973 -1.4237  0.2549  0.7649
 2565SOL    HW2 9690   0.298   2.258   0.825  0.0413 -1.0984  1.1165
 2566SOL     OW 9691   2.101   8.615   8.665  0.2657 -0.6191 -0.2999
 2566SOL    HW1 9692   2.060   8.567   8.737 -2.3832  1.6938 -0.0788
 2566SOL    HW2 9693   2.148   8.686   8.707 -1.6556  1.0072 -0.7509
 2567SOL     OW 9694   5.970   7.038   3.211 -0.1497 -0.0532 -0.3345
 2567SOL    HW1 9695   6.028   7.095   3.261  0.8606 -0.6619 -0.7708
 2567SOL    HW2 9696   5.882   7.063   3.238  0.3109  0.9211  0.3217
 2568SOL     OW 9697   7.965   6.778   6.474 -1.0760 -0.0739 -0.0395
 2568SOL    HW1 9698   7.909   6.844   6.434 -0.5200  0.5545  0.1873
 2568SOL    HW2 9699   7.966   6.800   6.568 -0.2173  0.1242 -0.0808
 2569SOL     OW 9700   3.923   0.962   7.944  0.1695  0.3037  0.3886
 2569SOL    HW1 9701   3.956   1.033   7.889 -1.6070  0.4738 -0.5439
 2569SOL    HW2 9702   3.984   0.959   8.018  0.6361  2.4183  0.1731
 2570SOL     OW 9703   3.837   7.752   5.591 -0.0128 -0.0653 -0.0728
 2570SOL    HW1 9704   3.773   7.779   5.657 -1.3726 -2.3713 -0.3691
 2570SOL    HW2 9705   3.902   7.702   5.641 -0.4081 -0.8089 -0.2983
 2571SOL     OW 9706   3.523   1.148   6.737 -0.8986 -0.5847 -0.0428
 2571SOL    HW1 9707   3.591   1.108   6.790 -1.5265 -1.3357  0.2191
 2571SOL    HW2 9708   3.569   1.180   6.659 -0.5345 -3.0161 -0.9073
 2572SOL     OW 9709   5.979   3.703   4.138 -0.6944 -0.1287  0.2046
 2572SOL    HW1 9710   5.896   3.717   4.091  0.0599 -0.7330 -1.3773
 2572SOL    HW2 9711   5.965   3.621   4.186 -0.5165 -1.1046 -1.3270
 2573SOL     OW 9712   8.644   7.932   3.347  0.4038  0.2047  0.3569
 2573SOL    HW1 9713   8.573   7.915   3.409  0.5606 -1.1386  0.1939
 2573SOL    HW2 9714   8.604   7.920   3.261  0.3746  1.3171  0.1997
 2574SOL     OW 9715   5.117   2.671   1.326  0.1017  0.2833 -0.3559
 2574SOL    HW1 9716   5.205   2.706   1.314 -0.1824  0.7207 -1.2722
 2574SOL    HW2 9717   5.130   2.588   1.373  1.1443 -0.4700 -1.8871
 2575SOL     OW 9718   2.546   0.289   4.978 -0.0314  0.0834  0.0900
 2575SOL    HW1 9719   2.501   0.266   4.897  1.3874  0.1808 -0.7561
 2575SOL    HW2 9720   2.591   0.209   5.005 -0.1386  0.1722  0.5375
 2576SOL     OW 9721   8.687   3.270   7.186 -0.0423  0.3366  0.1935
 2576SOL    HW1 9722   8.701   3.364   7.200  0.9717  0.1879  0.2193
 2576SOL    HW2 9723   8.721   3.229   7.265  0.2516 -0.1098 -0.1672
 2577SOL     OW 9724   8.847   5.920   8.809  0.1884 -0.0941 -0.1704
 2577SOL    HW1 9725   8.929   5.960   8.780 -0.6124  1.7033 -0.0566
 2577SOL    HW2 9726   8.875   5.855   8.875  1.4619  1.4176  0.8600
 2578SOL     OW 9727   0.958   3.386   3.797 -0.0186 -0.0853 -0.3025
 2578SOL    HW1 9728   0.889   3.320   3.805 -1.3742  1.1060 -1.5148
 2578SOL    HW2 9729   0.959   3.430   3.882 -1.7656  0.7811 -0.6805
 2579SOL     OW 9730   8.332   8.048   8.344  1.4162 -0.2715  0.6156
 2579SOL    HW1 9731   8.375   8.108   8.405  2.0975 -0.9467  0.8115
 2579SOL    HW2 9732   8.251   8.022   8.388  0.4060  1.5748 -0.0620
 2580SOL     OW 9733   6.959   4.860   0.036 -0.2732 -0.7387 -0.2884
 2580SOL    HW1 9734   6.985   4.800   0.106  1.0623 -0.4886 -0.5493
 2580SOL    HW2 9735   6.985   4.947   0.068 -1.2700 -0.3958 -0.3498
 2581SOL     OW 9736   3.786   3.704   8.737 -0.2594  0.1203 -0.0998
 2581SOL    HW1 9737   3.856   3.700   8.672 -0.6036 -0.0832 -0.4606
 2581SOL    HW2 9738   3.707   3.719   8.686 -0.4578  0.5326  0.3205
 2582SOL     OW 9739   3.077   7.535   4.625 -0.3819  0.3233  0.0645
 2582SOL    HW1 9740   3.043   7.494   4.705 -0.8897 -1.4068 -0.9914
 2582SOL    HW2 9741   3.172   7.535   4.637 -0.4622  0.2273  0.7242
 2583SOL     OW 9742   4.690   7.611   0.031 -0.0548  0.7653  0.5189
 2583SOL    HW1 9743   4.754   7.674  -0.002  2.0717  0.4387  3.6023
 2583SOL    HW2 9744   4.633   7.663   0.088 -2.6609  1.0252 -2.0664
 2584SOL     OW 9745   7.195   7.170   1.196  0.2049  0.3266  0.2529
 2584SOL    HW1 9746   7.130   7.181   1.127  1.7944  2.7476 -0.9987
 2584SOL    HW2 9747   7.220   7.259   1.220  3.0924 -0.4843  0.5935
 2585SOL     OW 9748   6.368   1.010   1.569 -0.1377  0.4011 -0.1526
 2585SOL    HW1 9749   6.408   1.097   1.569  0.4385  0.1722  1.4366
 2585SOL    HW2 9750   6.355   0.990   1.662 -1.0335 -0.8718 -0.5239
 2586SOL     OW 9751   4.419   3.976   7.178  0.3390  0.0997 -0.3689
 2586SOL    HW1 9752   4.505   3.999   7.212 -0.0613 -0.2809  0.9311
 2586SOL    HW2 9753   4.387   3.908   7.236 -1.0106  0.5048 -0.5940
 2587SOL     OW 9754   2.267   1.830   2.223  0.4945  0.0509 -0.1043
 2587SOL    HW1 9755   2.343   1.791   2.266  0.9328  0.2752 -0.6622
 2587SOL    HW2 9756   2.233   1.893   2.286 -1.4009 -2.5312  1.6446
 2588SOL     OW 9757   7.230   0.685   4.152 -0.3516 -0.1058 -0.3780
 2588SOL    HW1 9758   7.326   0.691   4.145 -0.3262 -0.3405 -0.2016
 2588SOL    HW2 9759   7.207   0.606   4.104 -0.4475 -0.1138 -0.3195
 2589SOL     OW 9760   5.771   5.660   2.511  0.4275 -0.4510  0.5518
 2589SOL    HW1 9761   5.773   5.575   2.556 -1.9909 -0.3613  0.9273
 2589SOL    HW2 9762   5.859   5.668   2.472  1.4016 -2.1659  2.2197
 2590SOL     OW 9763   8.643   4.756   5.471 -0.0403 -0.0377  0.6298
 2590SOL    HW1 9764   8.656   4.828   5.409 -0.8288 -1.4701 -1.3254
 2590SOL    HW2 9765   8.552   4.766   5.500 -0.2101 -0.3212  0.2134
 2591SOL     OW 9766   1.412   8.290   8.444  0.0851 -0.3209 -0.3447
 2591SOL    HW1 9767   1.356   8.226   8.400 -1.1014 -0.0587  0.7277
 2591SOL    HW2 9768   1.432   8.251   8.529  2.3456 -0.8166 -1.0283
 2592SOL     OW 9769   5.654   7.715   6.949  0.9132  0.0262  0.3091
 2592SOL    HW1 9770   5.616   7.790   6.995  1.3436  1.7114 -1.8935
 2592SOL    HW2 9771   5.747   7.737   6.940  0.8267 -0.1673 -1.3829
 2593SOL     OW 9772   5.836   5.765   7.187  0.8734 -0.1596  0.2736
 2593SOL    HW1 9773   5.882   5.731   7.110 -0.0761 -0.2932 -0.2489
 2593SOL    HW2 9774   5.765   5.818   7.151  0.5843  0.0004  1.0605
 2594SOL     OW 9775   2.936   3.123   3.678 -0.0471  0.1491 -0.2839
 2594SOL    HW1 9776   2.843   3.105   3.667  0.2390 -2.2706  0.5671
 2594SOL    HW2 9777   2.980   3.055   3.627  1.2094 -0.1111  1.0549
 2595SOL     OW 9778   4.153   7.512   5.341  0.3182  0.0749  0.5135
 2595SOL    HW1 9779   4.077   7.458   5.317 -0.7185  1.3602  0.8474
 2595SOL    HW2 9780   4.181   7.477   5.425  0.7406 -1.0479 -0.0606
 2596SOL     OW 9781   3.848   4.393   4.096  0.6570 -0.0781  0.3211
 2596SOL    HW1 9782   3.862   4.323   4.159  0.1070 -0.8138 -0.3491
 2596SOL    HW2 9783   3.852   4.350   4.011  2.4164  1.0574 -0.2308
 2597SOL     OW 9784   4.559   5.435   7.186 -0.0762 -0.4675 -0.1157
 2597SOL    HW1 9785   4.641   5.454   7.231 -0.3054 -1.6988  0.8729
 2597SOL    HW2 9786   4.571   5.348   7.148 -0.1166  0.2879 -1.9729
 2598SOL     OW 9787   4.244   0.056   5.059 -0.3919 -0.1391 -0.5702
 2598SOL    HW1 9788   4.187   0.133   5.058  0.4697  0.5187 -1.4978
 2598SOL    HW2 9789   4.213   0.001   4.988  1.6348  1.4361 -2.8502
 2599SOL     OW 9790   8.230   3.025   7.481  0.3802  0.1976  0.5215
 2599SOL    HW1 9791   8.319   2.992   7.465  0.1860 -0.2578  0.3776
 2599SOL    HW2 9792   8.174   2.972   7.424  0.2563  2.0009 -1.1253
 2600SOL     OW 9793   7.159   6.749   5.529  0.0133  0.6329  0.6583
 2600SOL    HW1 9794   7.086   6.803   5.559 -1.0327  0.0340 -0.7074
 2600SOL    HW2 9795   7.205   6.803   5.465 -0.6783  0.1704 -0.2595
 2601SOL     OW 9796   3.428   5.136   7.666 -0.5780 -0.2762 -0.4155
 2601SOL    HW1 9797   3.523   5.131   7.675 -0.7049 -1.3687  0.6380
 2601SOL    HW2 9798   3.412   5.150   7.573  0.6147  0.0623 -0.5759
 2602SOL     OW 9799   7.101   7.851   8.094 -0.1314  0.0321 -0.0681
 2602SOL    HW1 9800   7.034   7.915   8.119  0.4329  1.0475 -1.0699
 2602SOL    HW2 9801   7.114   7.798   8.172 -2.9437 -0.9710 -0.1717
 2603SOL     OW 9802   5.964   8.839   5.394 -0.6580 -0.4620  0.1423
 2603SOL    HW1 9803   5.883   8.791   5.406 -0.4800 -1.7190 -2.8651
 2603SOL    HW2 9804   6.028   8.773   5.368  0.8261  0.7826  0.4456
 2604SOL     OW 9805   7.379   7.768   2.828 -0.0279  0.1623  0.1708
 2604SOL    HW1 9806   7.431   7.693   2.798  1.5589  0.9871  0.7711
 2604SOL    HW2 9807   7.289   7.746   2.802  0.4818 -1.6488 -0.2355
 2605SOL     OW 9808   6.969   1.033   6.307 -0.3863  0.5398 -0.6098
 2605SOL    HW1 9809   7.045   0.988   6.344 -0.5657 -0.6038 -1.5805
 2605SOL    HW2 9810   6.986   1.126   6.324  0.7084  0.2318  0.1146
 2606SOL     OW 9811   5.947   3.674   4.973 -0.2613 -0.2447 -0.0421
 2606SOL    HW1 9812   5.951   3.593   4.921  1.6114  0.1198 -0.5586
 2606SOL    HW2 9813   5.985   3.741   4.916 -0.0032  0.5904  1.0733
 2607SOL     OW 9814   7.045   7.290   5.634  0.1074 -0.3244  0.1338
 2607SOL    HW1 9815   7.087   7.209   5.663  0.8923 -0.2300 -0.7210
 2607SOL    HW2 9816   7.022   7.275   5.543  2.3260  1.1786 -0.7703
 2608SOL     OW 9817   2.889   3.454   3.913  0.8724  0.4046 -0.1238
 2608SOL    HW1 9818   2.822   3.463   3.981 -0.2200  3.0216 -1.4035
 2608SOL    HW2 9819   2.932   3.371   3.933 -0.5922  0.1805  2.6585
 2609SOL     OW 9820   0.060   2.764   3.685 -0.0255  0.0919  0.3799
 2609SOL    HW1 9821   0.039   2.673   3.664 -1.5065  0.3913  0.4807
 2609SOL    HW2 9822   0.022   2.815   3.613  1.1411  0.6199  0.1105
 2610SOL     OW 9823   2.271   6.856   8.352  0.1174  0.4600  0.9150
 2610SOL    HW1 9824   2.199   6.812   8.307 -0.3814  1.4508  0.7221
 2610SOL    HW2 9825   2.232   6.892   8.432  0.6394  0.1087  1.3414
 2611SOL     OW 9826   7.817   1.217   7.404 -0.4945  0.1764 -0.1521
 2611SOL    HW1 9827   7.813   1.256   7.491  2.4382  0.2048  0.0799
 2611SOL    HW2 9828   7.791   1.287   7.345  2.4349  1.8946  0.4231
 2612SOL     OW 9829   3.179   0.727   6.642  0.8668  0.3353  0.2775
 2612SOL    HW1 9830   3.092   0.766   6.642 -0.2756 -2.0509  0.3263
 2612SOL    HW2 9831   3.216   0.750   6.557 -0.2703  0.4332 -0.2024
 2613SOL     OW 9832   8.034   7.019   4.746  0.1927  0.4286 -0.5742
 2613SOL    HW1 9833   8.097   7.041   4.677  1.1525  0.6139  0.3281
 2613SOL    HW2 9834   7.989   7.101   4.765 -0.1389  0.3563 -1.0390
 2614SOL     OW 9835   1.519   7.235   4.121  0.4791 -0.6926 -0.1426
 2614SOL    HW1 9836   1.604   7.214   4.160 -0.2423 -1.1219  1.2911
 2614SOL    HW2 9837   1.526   7.205   4.031  2.5643  1.2449 -0.7183
 2615SOL     OW 9838   6.775   2.967   2.813  0.5460 -0.5264 -0.6112
 2615SOL    HW1 9839   6.778   2.916   2.732  1.5279  0.3563 -1.1488
 2615SOL    HW2 9840   6.855   2.943   2.860  1.9251  1.7368 -1.6599
 2616SOL     OW 9841   8.134   2.593   3.699  0.7505  0.4247 -0.3973
 2616SOL    HW1 9842   8.175   2.506   3.696  0.3245  0.2512 -1.5511
 2616SOL    HW2 9843   8.206   2.654   3.682  0.9894  0.2892  0.1017
 2617SOL     OW 9844   4.609   6.771   5.992 -0.6901 -0.2515  0.3240
 2617SOL    HW1 9845   4.690   6.801   6.034 -0.4605  2.5674 -1.8362
 2617SOL    HW2 9846   4.542   6.780   6.060  0.2115  0.8855  1.1001
 2618SOL     OW 9847   4.538   2.456   8.839 -0.2321  0.4180  0.0283
 2618SOL    HW1 9848   4.499   2.477   8.754 -0.2380  1.7041  0.3234
 2618SOL    HW2 9849   4.596   2.382   8.821  1.1098  1.7320 -1.4927
 2619SOL     OW 9850   2.584   4.436   7.644  0.1128  0.2636  0.1726
 2619SOL    HW1 9851   2.529   4.503   7.604  1.2765  0.5001 -1.1236
 2619SOL    HW2 9852   2.616   4.385   7.569  0.8060 -0.5142  0.9874
 2620SOL     OW 9853   7.750   0.448   6.622  0.1754 -0.2191 -0.4244
 2620SOL    HW1 9854   7.703   0.531   6.615 -0.3896 -0.3564  1.3716
 2620SOL    HW2 9855   7.841   0.473   6.639 -0.1946  0.0800  1.3045
 2621SOL     OW 9856   1.968   6.335   8.131  0.6411 -0.5400 -0.0503
 2621SOL    HW1 9857   2.004   6.383   8.057 -0.4799  0.8922  0.3050
 2621SOL    HW2 9858   2.007   6.248   8.124  2.0883  0.1646 -1.1682
 2622SOL     OW 9859   3.137   2.413   0.309 -0.6249  0.1381 -0.4415
 2622SOL    HW1 9860   3.064   2.352   0.297  0.7373 -1.4655 -0.8010
 2622SOL    HW2 9861   3.208   2.377   0.257  0.8829  0.9179  0.9921
 2623SOL     OW 9862   0.902   0.758   2.607  0.0703 -0.2614 -0.2408
 2623SOL    HW1 9863   0.943   0.692   2.662 -1.0301  0.8587  2.0597
 2623SOL    HW2 9864   0.873   0.826   2.668 -2.4114  0.4640 -2.0398
 2624SOL     OW 9865   5.980   5.118   7.802 -0.1264 -0.3234  0.6208
 2624SOL    HW1 9866   5.968   5.137   7.895  1.0107 -0.9765  0.9171
 2624SOL    HW2 9867   6.003   5.203   7.764 -2.2874  0.3068  0.5868
 2625SOL     OW 9868   6.369   6.478   2.495  0.3417 -0.4024 -0.9331
 2625SOL    HW1 9869   6.374   6.563   2.539 -2.3381 -0.2505 -0.7864
 2625SOL    HW2 9870   6.351   6.500   2.404  0.4878 -0.8240 -1.0660
 2626SOL     OW 9871   5.064   0.611   3.101  0.5943  0.2301  0.5743
 2626SOL    HW1 9872   5.048   0.689   3.155  1.2144  0.0152  1.0783
 2626SOL    HW2 9873   5.116   0.643   3.027 -0.7247  0.6279 -0.2088
 2627SOL     OW 9874   8.770   2.890   7.500 -0.0075 -0.1121 -0.5389
 2627SOL    HW1 9875   8.730   2.819   7.550 -0.9100  0.7445 -0.0214
 2627SOL    HW2 9876   8.758   2.863   7.408 -1.3687 -0.0973 -0.3810
 2628SOL     OW 9877   5.886   8.787   6.560 -0.4184  0.1848 -0.0086
 2628SOL    HW1 9878   5.892   8.724   6.631 -0.4416 -1.7884 -1.6574
 2628SOL    HW2 9879   5.976   8.813   6.543 -0.2370 -0.6294 -0.3305
 2629SOL     OW 9880   0.650   5.140   3.248 -0.1827  0.0185 -0.3003
 2629SOL    HW1 9881   0.608   5.184   3.174 -2.5002 -0.3121  0.7123
 2629SOL    HW2 9882   0.687   5.210   3.300 -1.6172  0.6095 -0.0124
 2630SOL     OW 9883   8.644   7.280   3.791 -0.1531 -0.4160  0.1398
 2630SOL    HW1 9884   8.608   7.288   3.703  0.7360  1.0544 -0.1188
 2630SOL    HW2 9885   8.590   7.340   3.844 -0.5728 -1.1628  0.5744
 2631SOL     OW 9886   6.360   3.332   3.307 -0.4064  0.3411  0.5528
 2631SOL    HW1 9887   6.343   3.366   3.220 -0.6725 -0.4588  0.2833
 2631SOL    HW2 9888   6.439   3.377   3.336  0.0187  0.1767 -0.3354
 2632SOL     OW 9889   3.602   1.721   0.914 -0.2256  0.0242  0.3050
 2632SOL    HW1 9890   3.638   1.645   0.959 -0.2873  1.0139  2.1323
 2632SOL    HW2 9891   3.638   1.716   0.826  2.1437 -0.5614  1.2298
 2633SOL     OW 9892   0.289   6.829   4.436 -0.1749  0.4192 -0.2255
 2633SOL    HW1 9893   0.325   6.823   4.347 -1.2993  1.9003 -0.8216
 2633SOL    HW2 9894   0.315   6.915   4.467 -1.6453  0.8031  0.0150
 2634SOL     OW 9895   1.598   8.497   3.111  0.2134  0.0882 -0.2179
 2634SOL    HW1 9896   1.600   8.573   3.054 -0.9331  1.9989  2.0884
 2634SOL    HW2 9897   1.505   8.482   3.128  0.5085 -0.2134  1.2987
 2635SOL     OW 9898   2.524   5.889   5.235  0.2745  0.0414  0.2007
 2635SOL    HW1 9899   2.485   5.848   5.313  0.4053 -0.9838 -0.2625
 2635SOL    HW2 9900   2.454   5.886   5.170 -0.4093  2.3749  0.7092
 2636SOL     OW 9901   3.056   7.591   0.991 -0.4238 -0.2541 -0.0489
 2636SOL    HW1 9902   3.104   7.532   0.932 -2.2981  0.7371 -2.7224
 2636SOL    HW2 9903   3.091   7.678   0.971 -0.8970  0.0715  0.5207
 2637SOL     OW 9904   5.691   3.215   2.789 -0.4920  0.4011 -0.1583
 2637SOL    HW1 9905   5.713   3.235   2.880 -0.2649  0.9139 -0.3232
 2637SOL    HW2 9906   5.761   3.157   2.760  1.1197  2.6035 -0.9023
 2638SOL     OW 9907   7.858   1.900   1.092 -0.2232  0.1390  0.2509
 2638SOL    HW1 9908   7.908   1.819   1.105  1.4400  0.9272 -0.8277
 2638SOL    HW2 9909   7.882   1.954   1.167 -1.2520 -0.3017  0.9159
 2639SOL     OW 9910   7.076   8.620   7.544  0.0201 -0.9278  0.0030
 2639SOL    HW1 9911   6.983   8.638   7.533 -0.0661 -1.6197 -0.4215
 2639SOL    HW2 9912   7.082   8.525   7.550  0.6363 -0.8538  0.6583
 2640SOL     OW 9913   5.949   6.830   3.435  0.7869 -0.6955  0.3813
 2640SOL    HW1 9914   5.938   6.873   3.350  1.2248 -0.0634  0.6349
 2640SOL    HW2 9915   6.038   6.853   3.461  0.9185 -1.5026  0.6728
 2641SOL     OW 9916   6.952   5.029   4.082 -0.0745  0.2054  0.5081
 2641SOL    HW1 9917   6.954   4.936   4.060  1.1241 -0.6115  3.5715
 2641SOL    HW2 9918   6.858   5.049   4.086 -0.3550 -0.7119 -0.5878
 2642SOL     OW 9919   4.036   7.824   6.968  0.6961 -0.4355 -0.0415
 2642SOL    HW1 9920   3.998   7.831   7.056  1.0289 -1.7942  0.2271
 2642SOL    HW2 9921   4.121   7.868   6.975  0.7417 -0.5766  0.3413
 2643SOL     OW 9922   7.763   2.588   7.721 -0.6659  0.0083  0.4682
 2643SOL    HW1 9923   7.702   2.517   7.702  2.1594 -2.3337 -0.6518
 2643SOL    HW2 9924   7.726   2.631   7.798 -2.8445 -2.2898  0.8504
 2644SOL     OW 9925   1.074   1.564   4.419 -0.1148  0.1253  0.3990
 2644SOL    HW1 9926   1.075   1.472   4.393 -0.1788  0.1810  0.2006
 2644SOL    HW2 9927   1.095   1.612   4.339 -0.8426  0.3266  0.3228
 2645SOL     OW 9928   7.878   1.509   3.745  0.1420  0.4021 -0.0503
 2645SOL    HW1 9929   7.826   1.561   3.806  0.1763  1.0623 -0.5734
 2645SOL    HW2 9930   7.893   1.567   3.670 -1.2823 -0.8985 -1.4117
 2646SOL     OW 9931   0.691   0.875   6.762 -0.1587 -0.4589  0.0983
 2646SOL    HW1 9932   0.631   0.818   6.810  0.0939  0.3196  1.3706
 2646SOL    HW2 9933   0.682   0.960   6.804  0.4050  0.1390 -0.9587
 2647SOL     OW 9934   5.520   1.859   4.086 -0.5380 -0.0249 -0.0619
 2647SOL    HW1 9935   5.587   1.845   4.019 -1.4167 -1.0474 -0.7583
 2647SOL    HW2 9936   5.568   1.893   4.161  0.5720  0.4993 -0.9696
 2648SOL     OW 9937   8.105   7.694   7.993 -0.4845 -0.7118  0.4867
 2648SOL    HW1 9938   8.092   7.780   7.953 -0.8847 -2.0001 -2.3917
 2648SOL    HW2 9939   8.200   7.683   7.997 -0.3952 -1.1061 -1.5880
 2649SOL     OW 9940   4.629   8.179   2.826 -0.3889  1.0582  0.0061
 2649SOL    HW1 9941   4.685   8.102   2.831 -0.2410  0.7133 -4.0453
 2649SOL    HW2 9942   4.690   8.253   2.828 -0.3321  0.9950  1.4091
 2650SOL     OW 9943   2.127   6.227   6.656 -0.0879  0.5852 -0.1491
 2650SOL    HW1 9944   2.197   6.261   6.712  1.1964 -0.9691 -0.7436
 2650SOL    HW2 9945   2.124   6.286   6.581  1.4173  0.0112 -0.6827
 2651SOL     OW 9946   0.724   7.227   8.562 -0.2290 -0.2005 -0.4691
 2651SOL    HW1 9947   0.773   7.151   8.592 -0.0010 -0.1664 -0.7564
 2651SOL    HW2 9948   0.701   7.274   8.643 -0.2108 -0.4718 -0.3046
 2652SOL     OW 9949   4.058   6.793   2.393  0.1734  0.0127 -0.3698
 2652SOL    HW1 9950   3.972   6.763   2.363  0.8028 -0.8331 -1.4358
 2652SOL    HW2 9951   4.039   6.852   2.466 -1.3105 -0.0518 -0.6647
 2653SOL     OW 9952   1.176   0.470   8.387  0.2568 -0.7105  0.0905
 2653SOL    HW1 9953   1.131   0.541   8.340  1.3989 -0.4458 -0.6288
 2653SOL    HW2 9954   1.269   0.486   8.372  0.6273 -1.0520  1.8523
 2654SOL     OW 9955   2.408   5.497   7.244  0.1919 -0.1250 -0.4625
 2654SOL    HW1 9956   2.483   5.445   7.215 -0.5344 -1.8683  0.6019
 2654SOL    HW2 9957   2.341   5.481   7.177  0.4522  0.6861 -0.9271
 2655SOL     OW 9958   7.895   5.407   1.891 -0.8107  0.0535  0.0288
 2655SOL    HW1 9959   7.948   5.327   1.891 -0.1372  0.4566  1.4565
 2655SOL    HW2 9960   7.807   5.377   1.868 -0.2167 -0.8040 -1.2570
 2656SOL     OW 9961   5.332   4.712   4.116 -0.0945 -0.0671 -0.0982
 2656SOL    HW1 9962   5.396   4.663   4.167 -0.1377 -0.9745 -0.8855
 2656SOL    HW2 9963   5.385   4.775   4.066  0.1155 -0.3137 -0.1907
 2657SOL     OW 9964   6.316   5.577   4.349 -0.2373 -0.2001 -0.2023
 2657SOL    HW1 9965   6.264   5.538   4.279 -1.1503  1.7882 -0.7121
 2657SOL    HW2 9966   6.406   5.571   4.318 -0.6198  0.5551 -1.5423
 2658SOL     OW 9967   5.610   6.930   6.434 -0.3430  0.2050 -0.3725
 2658SOL    HW1 9968   5.529   6.982   6.441 -0.8637 -0.5244 -0.8607
 2658SOL    HW2 9969   5.592   6.851   6.485  0.8160  0.9142  1.2209
 2659SOL     OW 9970   3.998   7.103   7.936  0.2287  0.3279  0.8175
 2659SOL    HW1 9971   3.994   7.047   8.013  1.7300  1.4184  1.7256
 2659SOL    HW2 9972   4.091   7.121   7.924  0.0030  0.4374 -1.0773
 2660SOL     OW 9973   0.413   8.199   0.415  0.0096 -0.1364 -0.8054
 2660SOL    HW1 9974   0.364   8.191   0.496 -1.1122  2.8730 -1.0382
 2660SOL    HW2 9975   0.505   8.193   0.441 -0.3179  1.1189  0.7774
 2661SOL     OW 9976   7.095   7.559   8.222 -0.5566 -0.7658 -0.2975
 2661SOL    HW1 9977   7.032   7.563   8.294  0.7898  1.8294  0.8360
 2661SOL    HW2 9978   7.157   7.491   8.248 -0.7969 -0.7414  0.3389
 2662SOL     OW 9979   8.292   5.458   3.083  0.4179 -0.3794 -0.5280
 2662SOL    HW1 9980   8.198   5.477   3.084  0.2617 -1.0368  1.1358
 2662SOL    HW2 9981   8.300   5.370   3.047 -0.0538 -1.9450  2.8033
 2663SOL     OW 9982   1.068   4.544   7.110 -0.1842 -0.0895 -0.8299
 2663SOL    HW1 9983   1.005   4.513   7.045 -0.4181 -0.1180 -0.5912
 2663SOL    HW2 9984   1.034   4.628   7.140  1.1452  1.1095 -2.4608
 2664SOL     OW 9985   4.976   6.220   1.635  0.2414 -0.0979 -0.0323
 2664SOL    HW1 9986   4.954   6.303   1.676  0.7227 -0.6200  1.3738
 2664SOL    HW2 9987   5.070   6.226   1.617  0.1435 -0.0850 -0.5406
 2665SOL     OW 9988   8.262   1.671   7.573  0.0221 -0.3577  0.0014
 2665SOL    HW1 9989   8.271   1.767   7.576  0.9642 -0.4053 -0.7728
 2665SOL    HW2 9990   8.176   1.657   7.533 -0.4454  0.1545  0.7908
 2666SOL     OW 9991   7.424   2.619   7.516  0.2304 -0.0425 -0.8501
 2666SOL    HW1 9992   7.435   2.691   7.579  0.7247 -0.7906 -0.0674
 2666SOL    HW2 9993   7.329   2.606   7.512  0.2255 -2.2335  2.4224
 2667SOL     OW 9994   5.539   2.192   2.283 -0.1824  0.2237  0.2272
 2667SOL    HW1 9995   5.629   2.165   2.264 -0.6518  0.2641 -2.5798
 2667SOL    HW2 9996   5.517   2.251   2.211 -2.6889 -0.3198  0.4565
 2668SOL     OW 9997   3.199   6.029   8.136 -0.3357  0.1057 -0.4724
 2668SOL    HW1 9998   3.272   5.970   8.117  0.1215  0.8687 -1.1801
 2668SOL    HW2 9999   3.173   6.062   8.050 -1.4282 -0.0397 -0.2096
 2669SOL     OW10000   1.172   0.887   4.256 -0.5459  0.3064  0.2522
 2669SOL    HW110001   1.151   0.892   4.163 -0.4845  0.7331  0.2601
 2669SOL    HW210002   1.090   0.858   4.297 -1.2385  2.1737  0.3084
 2670SOL     OW10003   5.574   6.703   6.600 -0.0950 -0.1737  0.4129
 2670SOL    HW110004   5.513   6.672   6.666  0.8284  0.5940  1.6538
 2670SOL    HW210005   5.593   6.625   6.547 -1.4509 -0.6139  0.5414
 2671SOL     OW10006   7.591   5.384   7.527 -0.3395  0.1442 -0.4988
 2671SOL    HW110007   7.644   5.454   7.565 -0.1908 -0.2988  0.1343
 2671SOL    HW210008   7.512   5.383   7.581 -0.3325 -0.1831 -0.4921
 2672SOL     OW10009   5.433   5.045   6.530  0.8981 -1.1017  0.3509
 2672SOL    HW110010   5.398   5.012   6.448 -0.0871 -0.0969  0.3414
 2672SOL    HW210011   5.401   5.136   6.535  0.3438 -1.3593  2.1528
 2673SOL     OW10012   8.217   2.170   1.786  0.1643 -0.1227  0.3442
 2673SOL    HW110013   8.305   2.182   1.750 -0.2474  0.5153 -0.4951
 2673SOL    HW210014   8.159   2.210   1.721 -0.8348 -1.4444  0.3822
 2674SOL     OW10015   2.853   7.417   4.825  0.3049  0.4752 -0.1414
 2674SOL    HW110016   2.798   7.372   4.889 -0.7542  1.8954  0.0056
 2674SOL    HW210017   2.882   7.348   4.766 -2.1284 -0.2870 -0.5597
 2675SOL     OW10018   7.420   2.842   5.189  0.3920  0.0595  0.8249
 2675SOL    HW110019   7.488   2.820   5.124 -1.8449 -3.8336 -0.5404
 2675SOL    HW210020   7.344   2.865   5.136 -0.8856 -1.1075  2.0698
 2676SOL     OW10021   2.823   1.090   4.410 -0.1495  0.5347 -0.1055
 2676SOL    HW110022   2.849   0.998   4.402 -0.4788  0.5112 -0.9832
 2676SOL    HW210023   2.817   1.122   4.320 -1.3265  1.0521  0.1256
 2677SOL     OW10024   1.572   1.939   1.730 -0.3664  0.0265 -0.3574
 2677SOL    HW110025   1.492   1.888   1.716 -0.7508  0.5549 -0.1357
 2677SOL    HW210026   1.623   1.888   1.793 -1.2825  0.4752  0.7720
 2678SOL     OW10027   7.879   4.447   7.787  0.2764  0.0302 -0.2876
 2678SOL    HW110028   7.850   4.394   7.861 -0.1305  0.0634 -0.4196
 2678SOL    HW210029   7.798   4.483   7.750  0.5863  1.2578  0.1713
 2679SOL     OW10030   0.422   8.649   6.763  0.0851  0.8782 -0.0508
 2679SOL    HW110031   0.470   8.651   6.846 -0.4375  0.4042  0.2691
 2679SOL    HW210032   0.346   8.705   6.778  1.5501  3.3502 -1.2266
 2680SOL     OW10033   3.487   5.828   1.895 -0.6203 -0.4994  0.4197
 2680SOL    HW110034   3.536   5.767   1.951  0.4904  0.2314  0.2812
 2680SOL    HW210035   3.417   5.775   1.857  0.6214 -1.8305 -0.1034
 2681SOL     OW10036   3.597   7.497   3.623 -0.8919  0.3685 -0.1507
 2681SOL    HW110037   3.561   7.576   3.585 -2.1290 -0.7731 -1.4641
 2681SOL    HW210038   3.536   7.428   3.598  0.7878 -1.2129 -0.1236
 2682SOL     OW10039   1.103   4.922   0.140  0.2629 -0.4691 -0.9524
 2682SOL    HW110040   1.076   4.999   0.191 -1.4855 -0.1491 -2.2315
 2682SOL    HW210041   1.195   4.938   0.120  0.9043 -0.4394  1.7090
 2683SOL     OW10042   3.266   1.026   6.800 -0.0235  0.1985 -0.1857
 2683SOL    HW110043   3.303   0.953   6.849  1.6110  1.5098  0.6051
 2683SOL    HW210044   3.335   1.053   6.740 -1.0512  0.3553 -1.3695
 2684SOL     OW10045   4.274   4.336   5.510 -0.2712  0.1392  0.6628
 2684SOL    HW110046   4.277   4.366   5.601 -1.3236  0.5878  0.5608
 2684SOL    HW210047   4.186   4.301   5.498 -0.2168  0.2649 -0.2342
 2685SOL     OW10048   2.401   2.581   6.620 -0.5059 -0.0652 -0.3960
 2685SOL    HW110049   2.493   2.558   6.623 -0.6360 -0.7589 -1.4982
 2685SOL    HW210050   2.375   2.569   6.529 -1.2740  1.7683 -0.4683
 2686SOL     OW10051   4.907   1.454   8.496  0.1574 -0.2601  0.2302
 2686SOL    HW110052   4.914   1.472   8.402 -0.1551 -2.3565 -0.2446
 2686SOL    HW210053   4.961   1.376   8.509 -0.3383 -0.3851  1.6688
 2687SOL     OW10054   3.433   4.493   1.096 -0.0850  0.3669 -0.1572
 2687SOL    HW110055   3.394   4.570   1.056 -1.6088 -0.3556 -0.1251
 2687SOL    HW210056   3.391   4.419   1.052  1.1294 -0.4657  0.0156
 2688SOL     OW10057   0.279   6.505   4.201  0.3034 -1.2335 -0.1940
 2688SOL    HW110058   0.313   6.503   4.290  0.8840  0.9292 -0.3256
 2688SOL    HW210059   0.204   6.565   4.205  1.4689  0.3799 -1.4920
 2689SOL     OW10060   5.848   3.312   1.882 -0.2111  0.5648 -0.1539
 2689SOL    HW110061   5.937   3.344   1.867  0.5568 -1.1800  0.3885
 2689SOL    HW210062   5.792   3.371   1.831  1.1870  2.0575 -0.0235
 2690SOL     OW10063   0.474   3.238   4.131 -0.2786  0.5509  0.1945
 2690SOL    HW110064   0.512   3.164   4.082 -1.3248  0.0452  0.1289
 2690SOL    HW210065   0.452   3.302   4.063  0.3841  0.8191  0.2266
 2691SOL     OW10066   0.561   7.441   4.217  0.1516  0.4514  0.9359
 2691SOL    HW110067   0.556   7.463   4.125  0.9659 -1.4923  0.3669
 2691SOL    HW210068   0.526   7.517   4.263 -1.7266  0.8433 -1.0252
 2692SOL     OW10069   1.597   6.857   4.474  0.2401  0.0276  0.1247
 2692SOL    HW110070   1.565   6.934   4.522 -0.9805  1.1212 -2.3000
 2692SOL    HW210071   1.688   6.848   4.502 -0.1059  1.2586  1.7986
 2693SOL     OW10072   0.075   8.568   2.781 -0.2073  0.5297  0.3197
 2693SOL    HW110073   0.097   8.629   2.710 -0.1697  0.0474 -0.0928
 2693SOL    HW210074   0.106   8.483   2.749  0.4489  0.4150  1.2164
 2694SOL     OW10075   7.007   6.413   8.506  0.0590  0.2575  0.1272
 2694SOL    HW110076   6.976   6.323   8.493 -2.0237  1.1072 -1.2972
 2694SOL    HW210077   6.958   6.444   8.583  0.8206  0.1775  0.6544
 2695SOL     OW10078   5.593   1.138   8.854  0.4191  0.7768 -0.0344
 2695SOL    HW110079   5.613   1.109   8.943  1.1675 -1.3923 -0.8230
 2695SOL    HW210080   5.500   1.118   8.842  0.9667 -1.8963 -0.6448
 2696SOL     OW10081   5.410   6.167   0.507 -0.0005  0.6388 -0.4589
 2696SOL    HW110082   5.436   6.197   0.420 -1.2043 -0.2287 -1.1466
 2696SOL    HW210083   5.388   6.075   0.495 -0.3921  0.5638  0.7288
 2697SOL     OW10084   2.384   5.284   8.810 -0.4011  0.5339  0.5401
 2697SOL    HW110085   2.427   5.207   8.772 -0.9847  0.6874 -0.4812
 2697SOL    HW210086   2.448   5.319   8.872  0.4294  0.0244 -0.0094
 2698SOL     OW10087   8.659   3.317   0.125  0.0007  0.5910  0.3724
 2698SOL    HW110088   8.585   3.378   0.135 -0.6521 -0.2398  0.7006
 2698SOL    HW210089   8.622   3.231   0.142  0.3439 -0.2300 -2.5610
 2699SOL     OW10090   1.949   7.518   7.717  0.3512 -0.5194 -0.0136
 2699SOL    HW110091   1.863   7.558   7.727  0.5417  0.3182 -1.3817
 2699SOL    HW210092   2.010   7.592   7.724  0.7372 -0.5648 -2.2165
 2700SOL     OW10093   7.570   1.848   7.650 -0.6074 -0.6553 -0.4726
 2700SOL    HW110094   7.510   1.833   7.722  0.7744  0.1371  0.9165
 2700SOL    HW210095   7.524   1.908   7.591 -0.1560  2.5307  2.1241
 2701SOL     OW10096   4.709   4.261   1.980  0.5159 -0.3330  0.0378
 2701SOL    HW110097   4.789   4.242   1.931  0.4155  0.9090 -0.6554
 2701SOL    HW210098   4.670   4.335   1.933 -1.7828 -1.7726 -0.4930
 2702SOL     OW10099   4.560   1.045   8.601  0.3666  0.1036 -0.2026
 2702SOL    HW110100   4.537   1.135   8.626  0.5663 -0.1344  0.9245
 2702SOL    HW210101   4.562   0.998   8.684  0.0596 -1.0005 -0.8039
 2703SOL     OW10102   7.926   4.053   0.322 -0.1047  0.1701 -0.6800
 2703SOL    HW110103   7.974   3.972   0.309 -0.1594 -0.1072  0.7890
 2703SOL    HW210104   7.855   4.031   0.381 -1.6040  0.7586 -2.1729
 2704SOL     OW10105   8.452   1.116   0.590  0.2457 -0.0802 -0.4371
 2704SOL    HW110106   8.508   1.149   0.659 -1.0915  0.6352  0.3311
 2704SOL    HW210107   8.365   1.147   0.612 -0.3898 -0.7486 -1.8686
 2705SOL     OW10108   0.790   5.136   5.210 -0.6798 -0.0319  0.1208
 2705SOL    HW110109   0.813   5.070   5.276 -2.2026  1.5126  2.3209
 2705SOL    HW210110   0.862   5.199   5.214 -0.5517 -0.1675 -0.0327
 2706SOL     OW10111   4.701   6.109   3.094 -0.2534 -0.3440  0.2962
 2706SOL    HW110112   4.647   6.185   3.076 -0.8488 -0.8659 -0.1533
 2706SOL    HW210113   4.713   6.066   3.009  0.4240 -0.5276  0.4748
 2707SOL     OW10114   3.233   6.161   2.389  0.4656 -0.3919  0.0888
 2707SOL    HW110115   3.308   6.150   2.447  0.7585 -0.8256 -0.3563
 2707SOL    HW210116   3.270   6.156   2.301 -0.0087 -0.0263 -0.1386
 2708SOL     OW10117   5.151   4.292   7.929 -0.8138 -0.1543 -0.2594
 2708SOL    HW110118   5.219   4.224   7.921  0.1065  0.8669 -1.6696
 2708SOL    HW210119   5.081   4.250   7.979  0.1445 -1.8052 -0.2125
 2709SOL     OW10120   3.380   5.391   3.831  0.6485  0.1126 -0.6546
 2709SOL    HW110121   3.389   5.474   3.876  0.1810  0.3181 -0.9284
 2709SOL    HW210122   3.355   5.414   3.742  2.3705 -0.2597 -1.2754
 2710SOL     OW10123   1.218   6.535   2.326  0.6410 -0.1131  0.9179
 2710SOL    HW110124   1.303   6.556   2.365  1.5210 -1.5770 -0.0892
 2710SOL    HW210125   1.204   6.443   2.348  0.4013 -0.5190 -0.7991
 2711SOL     OW10126   4.099   5.097   2.494 -1.0990  0.1754 -0.3367
 2711SOL    HW110127   4.037   5.023   2.496 -0.7424 -0.1327 -0.4628
 2711SOL    HW210128   4.167   5.072   2.557 -0.9556  0.3808 -0.4116
 2712SOL     OW10129   3.316   5.751   8.620 -0.1949  0.0569  0.1485
 2712SOL    HW110130   3.262   5.724   8.546 -0.9096 -1.4278  1.1651
 2712SOL    HW210131   3.403   5.764   8.583 -0.3382 -1.5135 -0.8059
 2713SOL     OW10132   3.317   1.225   0.550  0.1281 -0.0416 -0.2701
 2713SOL    HW110133   3.363   1.269   0.479 -2.1015  3.3250  0.1573
 2713SOL    HW210134   3.283   1.145   0.511  1.0748  0.4778 -2.2794
 2714SOL     OW10135   8.562   6.583   4.765  0.1006  0.2942  0.4628
 2714SOL    HW110136   8.654   6.603   4.747 -0.3328  1.4414 -0.5965
 2714SOL    HW210137   8.548   6.615   4.854  1.0359 -1.0418  1.1158
 2715SOL     OW10138   1.767   7.837   8.247 -0.2617  0.1666 -0.0010
 2715SOL    HW110139   1.844   7.792   8.211  1.0919  1.3217  1.2919
 2715SOL    HW210140   1.713   7.857   8.171  0.7122 -0.6954 -0.9552
 2716SOL     OW10141   7.424   5.295   5.528  0.6176  0.0842  0.0300
 2716SOL    HW110142   7.460   5.232   5.466  2.7134 -0.4794  1.7085
 2716SOL    HW210143   7.424   5.378   5.480  1.2325 -0.5158 -1.0546
 2717SOL     OW10144   2.425   1.449   4.962 -0.2274 -0.4262  0.3814
 2717SOL    HW110145   2.415   1.355   4.945  0.2338 -0.3459 -0.3770
 2717SOL    HW210146   2.338   1.478   4.989 -1.5019 -0.2669 -3.4026
 2718SOL     OW10147   4.458   4.838   7.981  0.2532  0.1721  0.4007
 2718SOL    HW110148   4.425   4.793   7.903  0.2545  1.1258 -0.1584
 2718SOL    HW210149   4.537   4.790   8.005  0.3134 -0.0583 -0.2525
 2719SOL     OW10150   3.844   8.167   8.718  0.2686 -0.5553  0.0159
 2719SOL    HW110151   3.906   8.205   8.655 -0.8626  1.5950  0.0926
 2719SOL    HW210152   3.883   8.186   8.804  0.4354 -0.9225  0.0200
 2720SOL     OW10153   2.099   0.714   3.293  0.5785  0.1390 -0.5430
 2720SOL    HW110154   2.163   0.768   3.246  0.1330  0.4166 -0.8403
 2720SOL    HW210155   2.046   0.674   3.225 -0.9581  1.6162 -0.2928
 2721SOL     OW10156   5.381   7.139   2.951 -0.0557 -0.3674 -0.4525
 2721SOL    HW110157   5.433   7.141   2.870 -1.0959  0.8623 -1.1463
 2721SOL    HW210158   5.320   7.066   2.939  0.4782 -0.8453 -0.3059
 2722SOL     OW10159   4.067   6.227   8.182 -0.7088  0.6632  0.4281
 2722SOL    HW110160   4.067   6.240   8.277  0.8198  2.3175  0.2602
 2722SOL    HW210161   3.992   6.277   8.150 -2.6540 -1.7704  0.8897
 2723SOL     OW10162   5.606   6.900   1.814 -0.2834 -0.1140  0.1240
 2723SOL    HW110163   5.681   6.959   1.808 -1.6671  1.8101  0.5271
 2723SOL    HW210164   5.641   6.820   1.853  1.5082  0.8101  0.5298
 2724SOL     OW10165   2.673   4.269   8.307 -0.3615  0.0558 -0.0840
 2724SOL    HW110166   2.597   4.324   8.287 -0.4891 -0.8936 -2.6329
 2724SOL    HW210167   2.746   4.314   8.265 -0.0188 -0.3857  0.0363
 2725SOL     OW10168   2.089   5.898   4.074  0.3933  0.4840 -0.5446
 2725SOL    HW110169   2.054   5.921   4.160  0.3191  0.0998 -0.4677
 2725SOL    HW210170   2.126   5.811   4.086 -2.1233 -0.8506 -1.5597
 2726SOL     OW10171   6.694   1.470   3.915 -0.1453 -0.4795  0.0845
 2726SOL    HW110172   6.784   1.491   3.891 -0.3396 -1.2754 -1.4880
 2726SOL    HW210173   6.701   1.418   3.995  1.1450 -3.7775 -1.9871
 2727SOL     OW10174   5.199   0.975   3.109 -0.5110  1.0669 -0.0656
 2727SOL    HW110175   5.275   0.954   3.164  0.8451  1.3205 -1.7484
 2727SOL    HW210176   5.151   1.042   3.159 -0.1267  0.2710  1.4222
 2728SOL     OW10177   3.161   3.869   5.460  0.1095  0.1777  0.2086
 2728SOL    HW110178   3.100   3.801   5.486 -0.1797  0.6557  0.8088
 2728SOL    HW210179   3.196   3.839   5.377 -0.1025 -0.6435  0.4039
 2729SOL     OW10180   1.641   4.654   0.649  0.2732  0.5746 -0.4775
 2729SOL    HW110181   1.575   4.703   0.698 -1.4563 -0.5522 -1.5280
 2729SOL    HW210182   1.590   4.608   0.581  1.7812 -2.2671  0.1398
 2730SOL     OW10183   8.468   5.971   6.504  0.5877  0.1393  0.4329
 2730SOL    HW110184   8.391   5.946   6.554  1.5488 -1.3318  1.2411
 2730SOL    HW210185   8.456   5.929   6.418  0.2203  0.4059  0.3529
 2731SOL     OW10186   7.372   7.024   6.094 -0.0557 -0.0127 -0.4480
 2731SOL    HW110187   7.327   6.944   6.066  1.0721 -0.8438  0.0391
 2731SOL    HW210188   7.307   7.093   6.083 -1.4083 -1.1570  0.1310
 2732SOL     OW10189   0.779   1.792   2.250  0.3725  0.4226  0.1470
 2732SOL    HW110190   0.771   1.886   2.237  1.7108  0.7848  1.5984
 2732SOL    HW210191   0.727   1.773   2.329  0.1969 -0.0404 -0.0722
 2733SOL     OW10192   6.196   3.192   4.875 -0.5621 -0.1350  0.1708
 2733SOL    HW110193   6.274   3.137   4.886 -1.5004 -1.5874 -0.0859
 2733SOL    HW210194   6.134   3.136   4.827 -1.1839  1.5453 -1.0572
 2734SOL     OW10195   0.357   8.108   7.240  0.3961  0.0908 -1.2834
 2734SOL    HW110196   0.266   8.128   7.262  0.1607 -1.6120 -0.5567
 2734SOL    HW210197   0.408   8.173   7.288 -0.3823  0.1519 -0.5090
 2735SOL     OW10198   0.999   2.580   5.457  0.1662  0.2381  0.0414
 2735SOL    HW110199   0.930   2.545   5.402  0.3853 -0.0162 -0.0702
 2735SOL    HW210200   1.070   2.602   5.397  0.0507  0.8313  0.1124
 2736SOL     OW10201   6.460   0.734   7.184 -0.6138  0.1382 -0.1449
 2736SOL    HW110202   6.535   0.792   7.196 -1.3602  1.4533 -1.3525
 2736SOL    HW210203   6.497   0.647   7.178  0.8181  0.7438 -0.5500
 2737SOL     OW10204   4.624   6.690   5.557  0.2051 -0.4851  0.0004
 2737SOL    HW110205   4.647   6.656   5.644  0.0482  0.7273  0.5445
 2737SOL    HW210206   4.529   6.703   5.561  0.5258  2.3467  0.7543
 2738SOL     OW10207   1.986   0.949   3.681  0.2608  0.0072 -0.1703
 2738SOL    HW110208   1.906   0.899   3.669 -0.2069  0.5305  0.6734
 2738SOL    HW210209   2.010   0.978   3.593 -0.8589  0.4365 -0.3472
 2739SOL     OW10210   8.474   3.898   0.642 -0.3397  0.2712 -0.1100
 2739SOL    HW110211   8.405   3.928   0.583  0.3870 -1.5908 -2.0319
 2739SOL    HW210212   8.547   3.875   0.584  0.8109 -0.6224  1.6070
 2740SOL     OW10213   5.907   8.200   1.908  0.3296 -1.0261  0.3971
 2740SOL    HW110214   5.870   8.281   1.944 -1.7915 -1.7127 -0.1277
 2740SOL    HW210215   5.913   8.142   1.983 -0.0694 -1.0462  0.4166
 2741SOL     OW10216   0.590   8.671   3.156 -0.5352  0.0090  0.4079
 2741SOL    HW110217   0.499   8.643   3.153  0.0577 -2.0207  0.0661
 2741SOL    HW210218   0.638   8.603   3.109  1.1543  1.0897  0.4859
 2742SOL     OW10219   2.398   4.803   3.341  0.3750  0.7457 -0.0014
 2742SOL    HW110220   2.357   4.719   3.362 -1.2651  1.2479 -0.9938
 2742SOL    HW210221   2.361   4.865   3.404  0.8443  0.9104  0.1171
 2743SOL     OW10222   3.502   6.688   6.708 -0.4511  0.3173 -0.2709
 2743SOL    HW110223   3.545   6.647   6.783 -0.4429 -0.1016 -0.5046
 2743SOL    HW210224   3.574   6.721   6.654 -0.4219 -0.2832 -0.6050
 2744SOL     OW10225   1.957   4.347   3.400 -0.2709  0.4673 -0.4770
 2744SOL    HW110226   1.998   4.400   3.332  0.1241  0.5456 -0.1812
 2744SOL    HW210227   2.030   4.310   3.449 -0.4302  3.2826  2.1965
 2745SOL     OW10228   8.545   3.161   8.080  0.5149  0.4001 -0.5664
 2745SOL    HW110229   8.492   3.108   8.021  2.2130 -0.8093 -1.0774
 2745SOL    HW210230   8.599   3.215   8.023  0.5152  0.9275 -0.0752
 2746SOL     OW10231   1.397   5.292   3.544  0.3239 -0.6228  0.0165
 2746SOL    HW110232   1.309   5.307   3.512  1.2324  0.9650 -1.9427
 2746SOL    HW210233   1.429   5.378   3.569  1.3372 -1.1702  0.6735
 2747SOL     OW10234   3.105   4.965   7.631  0.1306 -0.0546 -0.2718
 2747SOL    HW110235   3.033   4.913   7.666 -0.1420  0.1333 -0.5500
 2747SOL    HW210236   3.178   4.903   7.624 -0.8560 -1.0495 -2.9253
 2748SOL     OW10237   5.295   3.060   1.094 -0.2423 -0.1499  0.0276
 2748SOL    HW110238   5.351   2.991   1.131  0.3497 -1.0772 -2.4150
 2748SOL    HW210239   5.356   3.130   1.070 -0.5872  0.3353  0.5325
 2749SOL     OW10240   1.586   8.012   0.220  0.7713 -0.2970 -0.1482
 2749SOL    HW110241   1.653   7.998   0.153  0.5764  0.3137 -0.4920
 2749SOL    HW210242   1.620   8.084   0.274  0.0670  0.5788 -0.8173
 2750SOL     OW10243   2.970   1.738   3.430 -0.1116  0.0339  0.2445
 2750SOL    HW110244   2.881   1.736   3.464 -0.1281 -0.8057  0.1824
 2750SOL    HW210245   3.002   1.648   3.440  1.1070  0.5500  1.2270
 2751SOL     OW10246   3.967   3.780   5.457  0.1529  0.7891 -0.1977
 2751SOL    HW110247   4.011   3.847   5.406 -0.8769  1.7936  0.1950
 2751SOL    HW210248   3.926   3.827   5.530  0.1354 -0.3745  0.5892
 2752SOL     OW10249   3.856   7.390   1.707  0.1387 -0.0362  0.3827
 2752SOL    HW110250   3.878   7.403   1.799  0.1601  1.2435  0.2118
 2752SOL    HW210251   3.890   7.468   1.662 -1.0706  0.0282 -0.4992
 2753SOL     OW10252   3.217   3.165   4.323 -0.1701 -0.2968  0.0745
 2753SOL    HW110253   3.124   3.159   4.347  0.1005 -0.9104  1.0228
 2753SOL    HW210254   3.249   3.075   4.329  0.6860  0.0307  0.6102
 2754SOL     OW10255   1.574   8.040   1.044 -0.2532  0.6474 -0.1339
 2754SOL    HW110256   1.661   8.073   1.067  0.9878 -1.2178 -1.6737
 2754SOL    HW210257   1.514   8.111   1.065  1.4369  1.4330  2.4543
 2755SOL     OW10258   7.169   5.306   8.132 -0.1066 -0.6988  0.2370
 2755SOL    HW110259   7.228   5.259   8.191 -0.9878 -1.2139  0.7320
 2755SOL    HW210260   7.164   5.251   8.053  0.3981 -0.4434  0.0268
 2756SOL     OW10261   3.920   1.352   8.151  0.2882 -0.1874  0.3085
 2756SOL    HW110262   3.833   1.314   8.145  0.4461 -0.7012  1.1177
 2756SOL    HW210263   3.906   1.446   8.150 -0.2992 -0.2671  0.6991
 2757SOL     OW10264   2.861   5.753   5.547 -0.2874 -0.0984 -0.6753
 2757SOL    HW110265   2.847   5.686   5.480  3.7864 -1.6311 -0.3046
 2757SOL    HW210266   2.880   5.703   5.626  2.4688  1.3907 -0.2741
 2758SOL     OW10267   0.088   5.903   5.786 -0.5758  0.2340 -0.0549
 2758SOL    HW110268   0.035   5.963   5.733  0.3001  1.0633 -0.0089
 2758SOL    HW210269   0.174   5.903   5.744 -0.6288 -1.2116 -0.2110
 2759SOL     OW10270   3.953   0.480   4.099 -0.0894  0.3188  0.3527
 2759SOL    HW110271   3.945   0.450   4.009  0.6734  0.0874  0.3553
 2759SOL    HW210272   4.045   0.462   4.122  0.4144  2.6407  0.3507
 2760SOL     OW10273   2.569   8.235   8.552 -0.2197  0.5210  0.2860
 2760SOL    HW110274   2.645   8.275   8.512 -0.1345  1.2417  1.1325
 2760SOL    HW210275   2.547   8.161   8.495  2.3728 -1.0073  1.1271
 2761SOL     OW10276   7.892   4.388   8.308 -0.1270 -0.0674 -0.0436
 2761SOL    HW110277   7.897   4.380   8.404 -0.0473  1.2244  0.0733
 2761SOL    HW210278   7.983   4.398   8.280 -0.2666  1.5588 -0.0326
 2762SOL     OW10279   0.060   4.674   6.999 -0.9176 -0.2864 -0.3156
 2762SOL    HW110280   0.028   4.680   7.089 -1.5280 -0.4003 -0.5202
 2762SOL    HW210281   0.155   4.661   7.008 -0.8588  0.5186  0.2889
 2763SOL     OW10282   6.825   5.559   4.632  0.7180 -0.1699 -0.0518
 2763SOL    HW110283   6.738   5.582   4.664  0.9071  0.1664  0.2250
 2763SOL    HW210284   6.831   5.464   4.644  0.3356 -0.2163 -0.2122
 2764SOL     OW10285   8.557   1.846   2.390  0.6741 -0.0614  0.1069
 2764SOL    HW110286   8.550   1.926   2.337  0.0509 -0.3166 -0.2069
 2764SOL    HW210287   8.501   1.782   2.345  0.0158 -0.2413  1.1431
 2765SOL     OW10288   4.395   4.993   6.235  0.1063 -0.1498 -0.7057
 2765SOL    HW110289   4.335   4.974   6.307  4.1146 -2.6466  2.4176
 2765SOL    HW210290   4.365   4.937   6.163 -0.9351 -1.7902  0.9398
 2766SOL     OW10291   7.279   2.026   5.806 -0.5105  1.0233 -0.2956
 2766SOL    HW110292   7.354   2.060   5.856  0.3854 -0.9521 -0.2042
 2766SOL    HW210293   7.307   2.033   5.715 -0.3590  0.6392 -0.2807
 2767SOL     OW10294   6.320   0.676   6.954  0.2380  0.1669  0.0646
 2767SOL    HW110295   6.371   0.731   7.014 -2.2920 -0.4573  3.0141
 2767SOL    HW210296   6.279   0.610   7.010 -2.8656 -0.0854 -2.2311
 2768SOL     OW10297   0.407   0.911   8.831  0.0392 -0.3572  0.4434
 2768SOL    HW110298   0.494   0.872   8.817 -0.6643 -1.5716 -0.7313
 2768SOL    HW210299   0.346   0.842   8.807 -1.2719  1.2227 -0.9745
 2769SOL     OW10300   0.679   0.781   3.414  0.0843 -0.2743 -0.2293
 2769SOL    HW110301   0.635   0.834   3.481  0.8476 -0.7115  0.6337
 2769SOL    HW210302   0.726   0.845   3.361  0.6825 -0.0364  0.5702
 2770SOL     OW10303   1.201   7.642   1.691  0.3829  0.6855 -0.3439
 2770SOL    HW110304   1.231   7.665   1.603  0.2615  2.1707 -0.0336
 2770SOL    HW210305   1.259   7.571   1.719 -1.4450 -1.9571 -2.7122
 2771SOL     OW10306   1.896   1.429   5.887 -0.1040 -0.2729 -0.4594
 2771SOL    HW110307   1.857   1.428   5.800  1.2895 -1.4570 -1.0995
 2771SOL    HW210308   1.955   1.354   5.889 -0.6872 -0.7586  1.7956
 2772SOL     OW10309   2.804   1.685   5.267 -0.4258  0.0055 -0.1131
 2772SOL    HW110310   2.779   1.711   5.178  0.0431 -0.5581 -0.4145
 2772SOL    HW210311   2.900   1.683   5.266 -0.3924  0.7285  0.6228
 2773SOL     OW10312   7.617   6.869   4.629  0.0113 -0.0203 -0.7092
 2773SOL    HW110313   7.539   6.907   4.587  0.2066  2.1050  0.7007
 2773SOL    HW210314   7.593   6.778   4.646 -2.2109  0.5904 -0.2504
 2774SOL     OW10315   3.332   5.573   7.838 -0.2344  0.4952 -0.4440
 2774SOL    HW110316   3.310   5.526   7.758  0.4845 -0.1065 -0.2925
 2774SOL    HW210317   3.425   5.594   7.829 -0.4084  1.3758 -0.2463
 2775SOL     OW10318   6.344   6.992   3.247  0.3224  0.1367  0.0788
 2775SOL    HW110319   6.385   7.017   3.164  1.1576 -0.0830  0.4200
 2775SOL    HW210320   6.283   7.063   3.265 -0.3205 -0.1102 -1.0306
 2776SOL     OW10321   0.395   7.409   3.093  0.3634  0.3056 -0.5456
 2776SOL    HW110322   0.306   7.374   3.082  0.7661 -0.5044 -1.3721
 2776SOL    HW210323   0.382   7.499   3.123 -0.7293  0.0746 -0.2673
 2777SOL     OW10324   8.470   2.217   8.718 -0.2672  0.2150  0.6042
 2777SOL    HW110325   8.450   2.137   8.768 -1.6835  0.0866 -0.1283
 2777SOL    HW210326   8.392   2.271   8.726  0.5284  1.3900  0.7552
 2778SOL     OW10327   2.738   1.358   5.230 -0.3180  0.6341 -0.0528
 2778SOL    HW110328   2.823   1.378   5.269 -1.0564  0.0783  1.9492
 2778SOL    HW210329   2.725   1.265   5.247 -2.1798  1.1123  1.5302
 2779SOL     OW10330   4.300   4.985   2.078 -0.0832  0.0622 -0.1162
 2779SOL    HW110331   4.241   4.911   2.095 -3.0813  1.7396 -2.3553
 2779SOL    HW210332   4.283   5.046   2.150  0.6474 -0.3948  0.4571
 2780SOL     OW10333   5.388   6.607   8.701  0.2918  0.2810 -0.0323
 2780SOL    HW110334   5.478   6.602   8.733 -0.3549 -0.1256  1.8371
 2780SOL    HW210335   5.361   6.696   8.720 -0.0725  0.0603  0.5049
 2781SOL     OW10336   8.089   2.364   1.122 -0.2420 -0.2358  0.0152
 2781SOL    HW110337   8.172   2.358   1.170 -0.8260  0.2006  1.1097
 2781SOL    HW210338   8.115   2.362   1.030  0.9872 -0.1216  0.3381
 2782SOL     OW10339   3.461   7.417   2.549  0.4523  0.2651  0.2702
 2782SOL    HW110340   3.437   7.357   2.619  1.3873  0.3514  0.6749
 2782SOL    HW210341   3.490   7.361   2.477 -3.0655  0.0091 -1.1492
 2783SOL     OW10342   7.282   1.772   6.914 -0.0236 -0.0739 -0.8943
 2783SOL    HW110343   7.284   1.689   6.866  0.2735  0.2109 -1.3862
 2783SOL    HW210344   7.362   1.817   6.887  0.0970  0.1389 -0.2041
 2784SOL     OW10345   0.626   3.227   0.321 -0.4974  0.1992  0.3648
 2784SOL    HW110346   0.671   3.148   0.350 -1.6728 -0.4606  0.4449
 2784SOL    HW210347   0.634   3.288   0.394 -0.0249 -0.0236  0.5032
 2785SOL     OW10348   2.315   2.701   4.326 -0.1366  0.5919 -0.5780
 2785SOL    HW110349   2.223   2.726   4.321 -0.2651  0.2273 -0.1496
 2785SOL    HW210350   2.321   2.649   4.406  0.3817  0.3600 -0.7623
 2786SOL     OW10351   0.012   4.710   8.826  0.3433 -0.4832 -0.4355
 2786SOL    HW110352  -0.018   4.620   8.823  0.3799 -0.4641 -2.8334
 2786SOL    HW210353   0.099   4.708   8.786  0.8260  0.4591  0.5159
 2787SOL     OW10354   2.134   7.962   1.735  0.0774 -0.8239 -0.3132
 2787SOL    HW110355   2.186   8.017   1.676 -0.4714 -1.8665 -1.8179
 2787SOL    HW210356   2.100   8.023   1.800 -1.0552  0.7818 -2.2753
 2788SOL     OW10357   1.904   3.921   0.785  0.2016  0.2949 -0.1781
 2788SOL    HW110358   1.985   3.869   0.790 -0.0629 -0.0450  0.6859
 2788SOL    HW210359   1.934   4.012   0.786  0.5484  0.1917  1.1429
 2789SOL     OW10360   4.151   3.088   5.542 -0.4944  0.3805 -0.6614
 2789SOL    HW110361   4.151   3.177   5.578 -0.0075  0.0452  0.1813
 2789SOL    HW210362   4.116   3.099   5.453 -1.1003  1.3096 -0.3291
 2790SOL     OW10363   3.618   6.569   6.945 -0.2453 -0.3624 -0.0858
 2790SOL    HW110364   3.536   6.573   6.992  0.7215  0.8126  1.6102
 2790SOL    HW210365   3.621   6.481   6.909 -2.3421 -0.3381 -0.4369
 2791SOL     OW10366   8.002   5.906   6.573 -0.0396 -0.4436  0.0395
 2791SOL    HW110367   8.072   5.894   6.509 -1.1445  0.5861 -1.4402
 2791SOL    HW210368   7.941   5.966   6.530 -1.2267 -0.3463  1.7695
 2792SOL     OW10369   6.367   5.449   3.390  0.4595 -0.1522  0.1876
 2792SOL    HW110370   6.377   5.359   3.422  4.4135 -0.0634 -0.2818
 2792SOL    HW210371   6.423   5.452   3.312 -0.8299  2.3417 -0.7332
 2793SOL     OW10372   6.535   3.378   7.714  0.4360 -0.4752 -0.3647
 2793SOL    HW110373   6.503   3.298   7.754  0.3765 -1.5155 -2.3877
 2793SOL    HW210374   6.499   3.378   7.626  1.2293  1.2945 -0.7469
 2794SOL     OW10375   6.340   4.273   8.852 -0.4453  0.2230 -0.6800
 2794SOL    HW110376   6.310   4.285   8.942  0.6924  0.5060 -0.3241
 2794SOL    HW210377   6.431   4.303   8.852 -0.3469 -0.0072 -1.8674
 2795SOL     OW10378   8.482   7.893   0.908 -0.2996  0.0592  0.1767
 2795SOL    HW110379   8.408   7.908   0.849  1.9866 -1.3128 -3.3747
 2795SOL    HW210380   8.541   7.967   0.892  0.5654 -0.5720  0.3927
 2796SOL     OW10381   4.491   2.036   4.842 -0.5671 -0.1862 -0.0530
 2796SOL    HW110382   4.583   2.051   4.866 -1.1788  1.5350  1.4707
 2796SOL    HW210383   4.458   1.976   4.908 -0.5238 -0.9316 -0.6942
 2797SOL     OW10384   7.950   3.067   6.249 -0.1056 -0.5730  0.0157
 2797SOL    HW110385   7.932   3.158   6.227 -1.9402 -0.8622  0.1527
 2797SOL    HW210386   7.957   3.023   6.164  0.5997 -0.3383 -0.0487
 2798SOL     OW10387   5.200   4.646   3.204 -0.0975  0.3383 -0.1682
 2798SOL    HW110388   5.149   4.712   3.157 -0.5202 -0.1582 -0.4041
 2798SOL    HW210389   5.279   4.635   3.151 -0.3335  0.1629 -0.4813
 2799SOL     OW10390   4.137   7.441   6.163  0.0217 -0.4068 -0.2247
 2799SOL    HW110391   4.126   7.430   6.068 -2.4706 -1.7577  0.1278
 2799SOL    HW210392   4.180   7.361   6.192 -0.9138 -0.8567 -0.0252
 2800SOL     OW10393   2.538   5.610   5.524  0.2532  0.4211  0.6423
 2800SOL    HW110394   2.535   5.652   5.610  0.7637  1.3649  0.2207
 2800SOL    HW210395   2.588   5.529   5.538  0.9787  0.9359  1.0961
 2801SOL     OW10396   2.263   2.221   5.980  0.0011  0.1392 -0.5005
 2801SOL    HW110397   2.242   2.204   6.072  0.8049  1.8485  0.0314
 2801SOL    HW210398   2.320   2.148   5.955 -0.7738 -0.7061  0.1424
 2802SOL     OW10399   6.774   6.861   7.259 -0.0188 -0.2558  0.0537
 2802SOL    HW110400   6.684   6.854   7.292 -0.0139 -0.2454  0.0687
 2802SOL    HW210401   6.804   6.770   7.252  1.3617 -0.2511  3.8087
 2803SOL     OW10402   2.059   4.357   7.285 -0.3390 -0.5191 -0.2681
 2803SOL    HW110403   2.030   4.446   7.268 -0.0076 -0.3920 -0.1757
 2803SOL    HW210404   2.125   4.340   7.217  0.5405 -0.2289  0.4880
 2804SOL     OW10405   3.104   0.310   6.487 -0.3847 -0.2084 -0.3996
 2804SOL    HW110406   3.095   0.338   6.578  1.4653 -1.0558  0.0706
 2804SOL    HW210407   3.192   0.338   6.461 -0.1551 -1.6477 -1.3076
 2805SOL     OW10408   5.628   3.533   6.082  0.0262 -0.2070  0.1637
 2805SOL    HW110409   5.543   3.559   6.047 -0.6002 -0.5600  1.3546
 2805SOL    HW210410   5.635   3.580   6.165  0.5335 -0.9648  0.5640
 2806SOL     OW10411   7.031   2.126   6.350  0.3794  0.3043 -0.5576
 2806SOL    HW110412   7.097   2.101   6.285  0.4924  2.3501 -1.3249
 2806SOL    HW210413   6.949   2.131   6.301 -0.2827 -1.6300  0.2660
 2807SOL     OW10414   5.558   5.531   4.069  0.3366  0.4447  0.3138
 2807SOL    HW110415   5.551   5.449   4.117  0.5292  0.8893  1.1205
 2807SOL    HW210416   5.624   5.581   4.116  0.9157  0.6921 -0.7267
 2808SOL     OW10417   5.710   4.663   8.609  0.5984  0.3384 -0.0051
 2808SOL    HW110418   5.715   4.753   8.578 -2.4269  0.4716 -0.3425
 2808SOL    HW210419   5.777   4.658   8.678  0.4383  3.0052  0.4335
 2809SOL     OW10420   4.883   2.445   2.518  0.7976  0.6414  0.8746
 2809SOL    HW110421   4.822   2.375   2.542  0.6188 -0.4193 -2.1948
 2809SOL    HW210422   4.854   2.521   2.568 -0.9286 -0.6777  1.9977
 2810SOL     OW10423   8.065   3.476   4.946  0.5346  0.1962  0.5566
 2810SOL    HW110424   8.060   3.382   4.962 -0.1875  0.1951  0.3459
 2810SOL    HW210425   8.126   3.485   4.872  1.6226 -0.0021  1.4170
 2811SOL     OW10426   1.250   4.234   0.773  0.3559 -0.1867 -0.2329
 2811SOL    HW110427   1.189   4.305   0.791  0.2337 -0.1942 -0.6082
 2811SOL    HW210428   1.204   4.177   0.711  1.0466  0.2380 -1.1621
 2812SOL     OW10429   0.571   6.827   0.567  0.6700  0.5979 -0.4647
 2812SOL    HW110430   0.567   6.914   0.526  0.7916  0.5564 -0.5610
 2812SOL    HW210431   0.558   6.766   0.495 -1.0971  0.5728 -0.1756
 2813SOL     OW10432   0.045   3.887   8.739 -0.3798 -0.2364  0.6906
 2813SOL    HW110433  -0.001   3.840   8.669  0.5403 -0.4089  0.1750
 2813SOL    HW210434   0.006   3.855   8.820 -1.8247  0.3408  0.2516
 2814SOL     OW10435   1.679   6.851   1.381 -0.0072  0.2698 -0.0358
 2814SOL    HW110436   1.724   6.769   1.363  1.0700  0.8442 -0.0363
 2814SOL    HW210437   1.656   6.846   1.474 -0.2548 -0.1736 -0.1210
 2815SOL     OW10438   8.070   7.923   1.639 -0.1926  0.2526 -0.1468
 2815SOL    HW110439   8.086   7.947   1.730  2.0763  0.9246 -0.6625
 2815SOL    HW210440   7.975   7.909   1.634 -0.2535 -0.8095  2.5277
 2816SOL     OW10441   0.214   8.044   5.230  0.1473 -0.4702  0.1568
 2816SOL    HW110442   0.283   7.995   5.184 -0.0522 -0.3851 -0.2408
 2816SOL    HW210443   0.216   8.131   5.190  0.9496  0.0642  1.3282
 2817SOL     OW10444   2.843   3.996   2.384 -0.3938 -0.4390 -0.3366
 2817SOL    HW110445   2.835   3.903   2.404 -0.5956 -0.8481 -2.1203
 2817SOL    HW210446   2.769   4.015   2.326 -0.5970  0.9491  0.3175
 2818SOL     OW10447   3.316   4.410   6.833  0.7540  0.1420  0.4242
 2818SOL    HW110448   3.325   4.417   6.928 -0.2214  0.1277  0.5311
 2818SOL    HW210449   3.224   4.430   6.817  0.5973 -1.1722 -0.3977
 2819SOL     OW10450   7.998   5.022   3.188  0.1605 -0.0904  0.2096
 2819SOL    HW110451   7.946   4.947   3.217  0.7454  0.1381  1.9406
 2819SOL    HW210452   7.936   5.095   3.186  0.5017  0.3869  3.1478
 2820SOL     OW10453   2.587   7.856   6.834  0.2461 -0.4382  0.0714
 2820SOL    HW110454   2.615   7.789   6.896  2.0280 -0.8138 -1.0382
 2820SOL    HW210455   2.523   7.812   6.778  1.8680 -1.5017 -1.0527
 2821SOL     OW10456   8.305   4.764   6.716 -0.4743 -0.1140  0.0328
 2821SOL    HW110457   8.269   4.691   6.766  1.1642 -0.6047  0.5373
 2821SOL    HW210458   8.367   4.806   6.775 -1.0490  1.4228 -0.4105
 2822SOL     OW10459   2.608   3.331   7.998  0.5881 -0.2726 -0.2810
 2822SOL    HW110460   2.585   3.343   8.090 -0.9739 -1.7602 -0.4341
 2822SOL    HW210461   2.606   3.236   7.985  1.9662 -0.1645 -1.5848
 2823SOL     OW10462   2.507   0.078   3.223  0.2031  0.1325 -0.3807
 2823SOL    HW110463   2.441   0.146   3.206  0.7258  0.6507 -0.3401
 2823SOL    HW210464   2.476   0.034   3.302 -0.6547 -0.3287 -0.9479
 2824SOL     OW10465   6.983   8.473   4.178 -0.1916 -0.6267  0.1246
 2824SOL    HW110466   6.915   8.505   4.118  0.9475  0.8278 -0.4549
 2824SOL    HW210467   7.029   8.405   4.128  0.5309  0.3385 -0.5661
 2825SOL     OW10468   1.630   0.741   5.012  0.1445 -0.3218 -0.1137
 2825SOL    HW110469   1.638   0.696   5.097  1.8615  1.5333  0.8015
 2825SOL    HW210470   1.553   0.798   5.022 -0.2792 -0.8793 -0.1919
 2826SOL     OW10471   2.943   2.904   0.335 -0.9816  0.0209  0.3476
 2826SOL    HW110472   2.944   2.999   0.343  2.4582  0.0716  0.5718
 2826SOL    HW210473   2.903   2.873   0.416  1.8914  1.2933  2.4187
 2827SOL     OW10474   8.852   4.026   8.371  0.8073 -0.1318 -0.7498
 2827SOL    HW110475   8.868   3.947   8.423  0.6041  0.0769 -0.3680
 2827SOL    HW210476   8.904   4.094   8.415  0.4155  0.1078 -0.6569
 2828SOL     OW10477   0.886   8.853   8.796  0.4722  0.7292  0.2886
 2828SOL    HW110478   0.918   8.805   8.720 -2.1364 -0.8480  0.0552
 2828SOL    HW210479   0.853   8.935   8.761 -0.7594 -0.0096 -0.3405
 2829SOL     OW10480   7.085   0.649   5.628  0.2356  0.4030 -0.0517
 2829SOL    HW110481   7.178   0.637   5.647  0.0568  0.2127  0.7826
 2829SOL    HW210482   7.082   0.694   5.544  1.0697 -0.0704 -0.3445
 2830SOL     OW10483   5.742   3.361   5.880  0.5428  0.2450  0.1153
 2830SOL    HW110484   5.655   3.364   5.919  0.0039 -2.6168 -0.6844
 2830SOL    HW210485   5.784   3.442   5.911 -1.8070  0.9312  1.8204
 2831SOL     OW10486   1.245   7.273   0.158  0.3258  0.1310  0.0586
 2831SOL    HW110487   1.240   7.330   0.080  0.1092  0.5946  0.4024
 2831SOL    HW210488   1.170   7.300   0.211 -0.2367 -1.0187 -0.1233
 2832SOL     OW10489   5.685   0.487   8.345 -0.0313  0.2009  0.0570
 2832SOL    HW110490   5.697   0.395   8.365 -1.1477  0.0571  0.0921
 2832SOL    HW210491   5.727   0.533   8.418 -0.0994 -0.2819  0.4037
 2833SOL     OW10492   7.110   5.127   7.896  0.1379  0.4601 -0.3051
 2833SOL    HW110493   7.158   5.047   7.918 -0.1550  0.1580 -0.7592
 2833SOL    HW210494   7.019   5.108   7.920  0.3123  1.2270  1.0651
 2834SOL     OW10495   2.486   8.370   4.987  0.5095 -0.2097  0.4478
 2834SOL    HW110496   2.538   8.292   5.004  0.6589 -0.2740 -0.3105
 2834SOL    HW210497   2.458   8.362   4.896 -0.4479  0.0485  0.7048
 2835SOL     OW10498   0.848   8.264   5.445 -0.5532 -0.5442 -0.0948
 2835SOL    HW110499   0.840   8.356   5.423 -3.4263 -0.1320  2.0330
 2835SOL    HW210500   0.815   8.218   5.368 -0.3028  0.2599 -0.6906
 2836SOL     OW10501   0.882   5.370   7.678  0.0159 -0.3942 -0.5638
 2836SOL    HW110502   0.878   5.378   7.583  0.9454 -1.1327 -0.6826
 2836SOL    HW210503   0.947   5.302   7.693  0.8161  0.5864  0.6241
 2837SOL     OW10504   0.542   2.397   0.176 -0.1950 -0.2424 -0.0402
 2837SOL    HW110505   0.506   2.462   0.116 -0.5539  1.1899  1.6528
 2837SOL    HW210506   0.471   2.378   0.238  0.7033 -0.3241  1.0037
 2838SOL     OW10507   8.600   6.335   2.103 -0.2870 -0.2018  0.1838
 2838SOL    HW110508   8.584   6.343   2.009 -1.8832  3.4761  0.5781
 2838SOL    HW210509   8.522   6.373   2.145  1.5198  0.9612  2.8558
 2839SOL     OW10510   0.888   3.959   6.853 -0.8296 -0.4190  0.4084
 2839SOL    HW110511   0.877   4.053   6.844  2.6814  0.2277  1.3992
 2839SOL    HW210512   0.865   3.923   6.767  0.0712  1.6466 -0.7692
 2840SOL     OW10513   7.913   4.651   3.799  0.1007  0.3002 -0.1839
 2840SOL    HW110514   7.912   4.745   3.784 -1.0586 -0.0046 -2.3900
 2840SOL    HW210515   7.995   4.621   3.761 -0.0266  0.3039 -0.4675
 2841SOL     OW10516   6.816   8.197   1.132  0.3246 -0.2227 -0.5569
 2841SOL    HW110517   6.808   8.252   1.054 -0.4437  0.3371 -0.0987
 2841SOL    HW210518   6.800   8.108   1.102 -1.5232  0.1569 -0.7895
 2842SOL     OW10519   0.186   3.023   2.168  0.2415  0.3247 -0.1950
 2842SOL    HW110520   0.166   2.943   2.215 -1.6275  0.3581 -0.8567
 2842SOL    HW210521   0.180   3.092   2.234  0.1183  0.1077  0.0217
 2843SOL     OW10522   7.356   0.073   6.639 -0.7319 -0.2265 -0.0360
 2843SOL    HW110523   7.401  -0.011   6.641  0.2238  0.2292 -1.1574
 2843SOL    HW210524   7.294   0.069   6.712 -0.0191 -1.5121  0.5334
 2844SOL     OW10525   6.590   3.900   2.074 -0.0311 -0.4881  0.6123
 2844SOL    HW110526   6.521   3.920   2.137 -1.0657 -1.3792 -0.1876
 2844SOL    HW210527   6.600   3.805   2.078  0.7560 -0.4308  0.2987
 2845SOL     OW10528   1.751   2.368   7.495  0.4463 -0.2084 -0.0504
 2845SOL    HW110529   1.708   2.389   7.412  0.4868  0.4118  0.0779
 2845SOL    HW210530   1.753   2.451   7.542  3.4297  0.2746 -0.7839
 2846SOL     OW10531   0.450   7.474   5.497  0.3966  0.5011 -0.0072
 2846SOL    HW110532   0.465   7.473   5.402 -2.4427 -0.9605 -0.5172
 2846SOL    HW210533   0.489   7.393   5.529 -1.8725 -0.8792 -0.5724
 2847SOL     OW10534   1.245   2.304   4.103 -0.5362 -0.3901 -0.0697
 2847SOL    HW110535   1.323   2.257   4.132 -0.6603 -0.2706  0.4889
 2847SOL    HW210536   1.278   2.374   4.046 -0.1448  0.1999  0.8506
 2848SOL     OW10537   6.561   0.664   4.138 -0.0043 -0.0276  0.1975
 2848SOL    HW110538   6.488   0.605   4.156 -0.9737  1.9225  3.3602
 2848SOL    HW210539   6.624   0.646   4.207  1.4925  0.0072 -1.0913
 2849SOL     OW10540   7.288   7.916   4.580 -0.0972  0.5202 -0.6844
 2849SOL    HW110541   7.338   7.835   4.583 -0.0471  0.3291 -3.4350
 2849SOL    HW210542   7.342   7.975   4.528 -0.4753  2.0965  0.6258
 2850SOL     OW10543   1.597   5.958   4.007 -0.5720  0.4276  0.3244
 2850SOL    HW110544   1.634   5.886   3.957 -1.0703  0.6398 -0.3620
 2850SOL    HW210545   1.542   5.916   4.073 -0.4197  0.1656  0.2859
 2851SOL     OW10546   7.774   0.022   7.787 -0.2568  0.3960  0.1078
 2851SOL    HW110547   7.793  -0.008   7.876  0.1441  1.4280  0.3825
 2851SOL    HW210548   7.679   0.014   7.778 -0.4468  1.3507  1.0435
 2852SOL     OW10549   2.468   6.666   4.271  0.1977 -0.0743 -0.5966
 2852SOL    HW110550   2.458   6.752   4.311 -2.2188  0.5765 -2.4160
 2852SOL    HW210551   2.531   6.679   4.200 -2.0760  0.9113 -2.5436
 2853SOL     OW10552   1.188   2.841   7.925 -0.0529 -0.0149 -0.5704
 2853SOL    HW110553   1.094   2.826   7.915 -0.1142  1.1956 -2.1284
 2853SOL    HW210554   1.196   2.933   7.949  0.7422 -0.0813 -0.5393
 2854SOL     OW10555   0.242   3.096   0.950  0.0233  0.6048 -0.2242
 2854SOL    HW110556   0.169   3.052   0.907 -1.2630  1.9389  0.4940
 2854SOL    HW210557   0.202   3.138   1.027  1.6594  0.9041  0.4951
 2855SOL     OW10558   4.766   6.072   4.014  0.1724 -0.4562 -0.0056
 2855SOL    HW110559   4.771   6.097   3.922  1.7940 -0.7137 -0.0262
 2855SOL    HW210560   4.833   6.125   4.057 -1.5909  0.7840  1.3405
 2856SOL     OW10561   0.948   3.542   8.308  0.0618 -0.3426  0.2895
 2856SOL    HW110562   0.971   3.452   8.332 -0.1645 -0.8539 -1.3397
 2856SOL    HW210563   0.859   3.553   8.340 -0.0917 -0.8686  0.0501
 2857SOL     OW10564   2.762   0.879   8.387  0.0156  0.0974  0.3330
 2857SOL    HW110565   2.675   0.840   8.393 -1.7447  3.7895  1.6158
 2857SOL    HW210566   2.766   0.917   8.300 -0.1705  0.9308  0.6767
 2858SOL     OW10567   0.538   8.544   4.049 -0.1342  0.2720  0.8184
 2858SOL    HW110568   0.610   8.574   3.995 -1.2189 -0.4072 -1.1229
 2858SOL    HW210569   0.483   8.621   4.062  0.0314  0.3957  0.7827
 2859SOL     OW10570   2.386   1.466   0.765  0.1084 -0.6996  0.6548
 2859SOL    HW110571   2.417   1.534   0.825 -0.1821  1.1651 -1.1942
 2859SOL    HW210572   2.292   1.460   0.782  0.2644 -1.2116  1.3559
 2860SOL     OW10573   7.629   6.099   2.583 -0.2071  0.4957  0.1501
 2860SOL    HW110574   7.705   6.090   2.640 -0.3614 -0.3644  0.2301
 2860SOL    HW210575   7.598   6.010   2.570 -1.7247  0.8984  0.8302
 2861SOL     OW10576   1.233   3.472   7.053  0.1665 -0.1910  0.4611
 2861SOL    HW110577   1.139   3.489   7.055  0.4318  1.7457 -0.7117
 2861SOL    HW210578   1.273   3.559   7.057  1.9540 -0.9944  1.7990
 2862SOL     OW10579   0.517   4.074   2.893 -0.2854 -0.3352 -0.2014
 2862SOL    HW110580   0.539   4.078   2.800  0.0036  0.8634 -0.0963
 2862SOL    HW210581   0.425   4.047   2.895 -0.3541 -0.1622 -0.8414
 2863SOL     OW10582   0.628   8.016   6.985  0.3544  0.3100 -0.6106
 2863SOL    HW110583   0.678   7.966   6.920  1.2738  0.5997 -0.1376
 2863SOL    HW210584   0.592   8.090   6.935  0.2239 -0.0106 -0.9976
 2864SOL     OW10585   6.549   6.522   3.516 -0.7618  0.2339  1.1593
 2864SOL    HW110586   6.570   6.544   3.607 -0.8589  0.8430  1.0416
 2864SOL    HW210587   6.635   6.510   3.474 -0.7337 -1.4803  1.6525
 2865SOL     OW10588   3.142   8.051   8.870 -0.1235 -0.2243 -0.0761
 2865SOL    HW110589   3.228   8.019   8.896  0.3889 -0.6439 -2.1412
 2865SOL    HW210590   3.117   8.111   8.940  1.3596 -0.9120  1.0967
 2866SOL     OW10591   2.674   1.335   0.594 -0.1990  0.3301  0.0102
 2866SOL    HW110592   2.766   1.322   0.569 -0.4805  0.8768 -1.4012
 2866SOL    HW210593   2.634   1.378   0.518 -1.1360  2.0899  1.4419
 2867SOL     OW10594   7.586   2.296   4.098 -0.2290 -1.0529  0.0412
 2867SOL    HW110595   7.529   2.221   4.082 -0.5881 -0.4502 -1.8508
 2867SOL    HW210596   7.530   2.361   4.140 -0.4347 -1.1440 -0.0929
 2868SOL     OW10597   3.349   2.616   7.189  0.2210  0.1903 -0.3037
 2868SOL    HW110598   3.355   2.677   7.263 -0.2752  0.1329 -0.2098
 2868SOL    HW210599   3.283   2.655   7.131 -1.8024 -1.3374  0.8335
 2869SOL     OW10600   5.424   7.374   5.534  0.6373 -0.6668  0.2574
 2869SOL    HW110601   5.341   7.348   5.494  0.7488 -0.0660 -0.3794
 2869SOL    HW210602   5.400   7.399   5.623  0.1931 -0.8784  0.2020
 2870SOL     OW10603   1.355   7.128   2.289 -0.5120 -0.3742  0.1069
 2870SOL    HW110604   1.297   7.162   2.358  0.0484  0.9405 -0.0266
 2870SOL    HW210605   1.304   7.136   2.209 -1.6529 -3.1197  0.4684
 2871SOL     OW10606   7.400   3.192   3.352  0.4946 -0.5106  0.2994
 2871SOL    HW110607   7.355   3.244   3.285  2.1189 -1.2842 -1.4950
 2871SOL    HW210608   7.426   3.255   3.418 -0.7330  0.3672 -0.0241
 2872SOL     OW10609   6.401   4.954   5.806 -0.3754 -0.7680  0.1303
 2872SOL    HW110610   6.480   5.007   5.806 -1.4017  0.8544 -0.7951
 2872SOL    HW210611   6.365   4.964   5.894  0.6517 -1.9129  0.7168
 2873SOL     OW10612   6.257   3.741   4.832  0.0919  0.2607  0.8933
 2873SOL    HW110613   6.285   3.649   4.841  1.1233  0.3833 -0.6368
 2873SOL    HW210614   6.316   3.777   4.766 -1.2571  1.6424  0.3951
 2874SOL     OW10615   0.954   7.613   7.170  0.9337 -0.0555  0.1739
 2874SOL    HW110616   0.880   7.667   7.199  1.0851 -0.3769  1.1863
 2874SOL    HW210617   1.004   7.671   7.112 -0.0538  0.1931 -0.4664
 2875SOL     OW10618   6.674   4.772   6.803  0.0195 -0.5669 -0.4854
 2875SOL    HW110619   6.747   4.721   6.769 -0.1164 -1.0121 -0.1126
 2875SOL    HW210620   6.612   4.707   6.835 -0.4604 -0.1877 -0.6297
 2876SOL     OW10621   2.523   6.956   6.413 -0.0634 -0.3252 -0.2323
 2876SOL    HW110622   2.588   7.023   6.431  0.3641 -1.1946  1.7332
 2876SOL    HW210623   2.450   7.003   6.372  0.5691  1.1714  0.2960
 2877SOL     OW10624   8.769   5.070   4.299  0.0558  0.1457  0.1798
 2877SOL    HW110625   8.769   5.091   4.393  1.2620 -2.4025  0.8493
 2877SOL    HW210626   8.862   5.061   4.277 -0.2524 -0.7126 -0.8673
 2878SOL     OW10627   4.919   8.855   7.277 -0.4901  1.0020 -0.5137
 2878SOL    HW110628   4.910   8.763   7.253 -0.5629  0.7899  0.2767
 2878SOL    HW210629   4.857   8.901   7.221 -1.5323  0.3887  0.1079
 2879SOL     OW10630   5.487   5.892   5.629  0.2012 -0.3271  0.1346
 2879SOL    HW110631   5.462   5.808   5.590  0.6629 -0.5124  0.2246
 2879SOL    HW210632   5.563   5.870   5.684  1.9121  0.5672 -1.7475
 2880SOL     OW10633   8.370   7.033   4.880 -0.1300  0.3284 -0.4132
 2880SOL    HW110634   8.308   6.961   4.883  0.6083 -0.3248 -0.3279
 2880SOL    HW210635   8.361   7.076   4.965  0.2427 -0.3842 -0.0039
 2881SOL     OW10636   3.907   1.562   7.845 -0.0519  0.5591 -0.5233
 2881SOL    HW110637   3.915   1.631   7.779  1.7470  0.2715 -0.6653
 2881SOL    HW210638   3.892   1.482   7.795  0.0023  0.5339 -0.4993
 2882SOL     OW10639   7.521   8.021   0.534 -0.1355 -0.0655  0.1473
 2882SOL    HW110640   7.482   7.961   0.471 -1.1486 -0.3890  1.0572
 2882SOL    HW210641   7.615   8.019   0.514 -0.3597 -0.6644 -0.9037
 2883SOL     OW10642   3.257   4.518   7.578  0.1111 -0.0761  0.6006
 2883SOL    HW110643   3.185   4.459   7.556  0.6956 -0.5084 -0.2074
 2883SOL    HW210644   3.316   4.465   7.632  0.5358 -0.1873  0.0448
 2884SOL     OW10645   6.933   4.060   4.269  0.2387 -0.2379 -0.6715
 2884SOL    HW110646   6.845   4.095   4.277  0.3667  0.2086 -1.1994
 2884SOL    HW210647   6.931   3.978   4.319 -0.0619  0.5214  0.5998
 2885SOL     OW10648   5.963   6.946   5.144 -0.1500 -0.2868  0.3898
 2885SOL    HW110649   6.056   6.960   5.161 -0.2415  0.1714  0.5389
 2885SOL    HW210650   5.918   6.999   5.211 -0.5158  0.0251 -0.0979
 2886SOL     OW10651   4.389   1.609   3.260 -0.2908 -0.3969  0.8781
 2886SOL    HW110652   4.454   1.610   3.330 -1.9002  0.1495  2.4080
 2886SOL    HW210653   4.435   1.569   3.186  2.0535  0.7495  1.6223
 2887SOL     OW10654   3.487   4.836   4.343  0.2454  0.2197 -1.3429
 2887SOL    HW110655   3.448   4.913   4.302 -0.5768  1.4188  1.4718
 2887SOL    HW210656   3.477   4.766   4.278 -3.4719  1.2845 -2.1382
 2888SOL     OW10657   5.315   3.865   0.033  0.1762  0.1433  0.5538
 2888SOL    HW110658   5.371   3.914   0.094  0.7606 -1.5037  1.4094
 2888SOL    HW210659   5.226   3.890   0.057  0.4696  1.5854  0.2463
 2889SOL     OW10660   5.535   1.386   6.310  0.1178  0.1324 -0.1796
 2889SOL    HW110661   5.448   1.395   6.347 -0.6390  2.5864 -2.2269
 2889SOL    HW210662   5.589   1.448   6.360  0.0754  0.4317 -0.5005
 2890SOL     OW10663   5.066   1.827   6.315 -0.2622 -0.1643  0.1892
 2890SOL    HW110664   5.009   1.831   6.392 -0.6511  1.1568 -0.1321
 2890SOL    HW210665   5.010   1.795   6.245 -1.7458  4.2096 -0.9547
 2891SOL     OW10666   2.684   4.029   3.652  0.1243  0.2872  0.0327
 2891SOL    HW110667   2.634   4.092   3.705  0.5043  2.0789 -1.6122
 2891SOL    HW210668   2.776   4.048   3.672  0.2238 -0.2941  0.1245
 2892SOL     OW10669   6.335   5.443   7.807 -0.1131 -0.2826 -0.5156
 2892SOL    HW110670   6.360   5.354   7.830  2.2263  0.3480 -0.3493
 2892SOL    HW210671   6.242   5.437   7.785 -0.0045 -2.7509 -0.5727
 2893SOL     OW10672   6.702   3.952   4.812 -1.4019 -0.6249  0.2676
 2893SOL    HW110673   6.614   3.970   4.846 -2.0436  0.4845 -1.7382
 2893SOL    HW210674   6.708   4.007   4.733  1.2003 -0.4739  0.4869
 2894SOL     OW10675   0.671   3.452   8.102 -0.2415  0.4285 -0.6073
 2894SOL    HW110676   0.576   3.449   8.096 -0.5097 -0.3668  2.2011
 2894SOL    HW210677   0.689   3.504   8.181  1.4835 -1.4366  0.3451
 2895SOL     OW10678   0.698   2.865   4.514 -0.4040  0.2107  0.1424
 2895SOL    HW110679   0.650   2.836   4.436  0.1560  0.7680 -0.4226
 2895SOL    HW210680   0.682   2.797   4.579 -1.5571  0.1364 -0.1887
 2896SOL     OW10681   3.276   3.753   7.239 -0.0623 -0.1711  0.3394
 2896SOL    HW110682   3.288   3.837   7.195  0.5481 -1.3631 -1.9183
 2896SOL    HW210683   3.322   3.763   7.322  0.1976  1.6408  0.0230
 2897SOL     OW10684   7.975   2.576   8.646 -0.2833 -0.4130 -0.5006
 2897SOL    HW110685   7.940   2.608   8.563 -0.7697 -0.3619 -0.2786
 2897SOL    HW210686   7.923   2.620   8.713  1.7902  1.5304 -0.0885
 2898SOL     OW10687   4.943   4.045   2.503  0.3073 -0.8187  0.2155
 2898SOL    HW110688   4.918   4.133   2.530 -1.8722 -0.3091 -2.8802
 2898SOL    HW210689   4.943   4.049   2.407  0.7161 -4.0662 -0.0225
 2899SOL     OW10690   7.542   5.547   8.078 -0.1372 -0.4317  0.3594
 2899SOL    HW110691   7.497   5.556   7.994 -0.1132 -0.8330  0.3015
 2899SOL    HW210692   7.473   5.553   8.143 -0.0295  1.0482  0.3848
 2900SOL     OW10693   6.589   1.130   0.094  0.1877 -0.3009 -0.0738
 2900SOL    HW110694   6.638   1.077   0.157  0.9433 -0.5307 -0.8378
 2900SOL    HW210695   6.638   1.212   0.089 -0.4778  0.1446  0.4301
 2901SOL     OW10696   0.454   8.483   0.880  0.0459  0.3972  0.1727
 2901SOL    HW110697   0.517   8.555   0.867  1.0051  0.1875  3.0372
 2901SOL    HW210698   0.467   8.427   0.803  3.3398  0.4377  0.5409
 2902SOL     OW10699   4.997   1.553   6.569 -0.0927  0.0666  1.0143
 2902SOL    HW110700   5.084   1.550   6.608  1.0515 -1.3649 -1.4098
 2902SOL    HW210701   4.971   1.461   6.563 -2.2551  0.5052  2.5617
 2903SOL     OW10702   7.444   4.311   7.850 -0.1209  0.3701 -0.1654
 2903SOL    HW110703   7.371   4.249   7.848  1.5011 -1.6351 -0.4420
 2903SOL    HW210704   7.446   4.348   7.762  1.0010 -1.8705 -1.1688
 2904SOL     OW10705   1.255   7.200   1.118 -0.5171 -0.1215 -0.1002
 2904SOL    HW110706   1.241   7.119   1.167 -0.8817 -0.1814 -0.2991
 2904SOL    HW210707   1.231   7.178   1.028  0.3414 -0.0667 -0.3511
 2905SOL     OW10708   6.835   8.437   3.081 -0.1286 -0.1129 -0.3756
 2905SOL    HW110709   6.807   8.520   3.120  0.4689 -0.4547  0.8514
 2905SOL    HW210710   6.891   8.397   3.148  0.4739 -1.0093 -1.3787
 2906SOL     OW10711   2.649   1.627   8.198 -0.1709  0.0977  0.0424
 2906SOL    HW110712   2.614   1.584   8.120  0.0446  0.3840 -0.2117
 2906SOL    HW210713   2.725   1.676   8.167  0.3975 -0.4427  0.5811
 2907SOL     OW10714   0.872   7.003   8.597  0.7551  0.3436 -0.4574
 2907SOL    HW110715   0.856   6.952   8.676 -0.7275  0.8324 -0.4082
 2907SOL    HW210716   0.867   6.939   8.526  1.7281 -0.0323 -0.2075
 2908SOL     OW10717   1.695   3.456   2.867 -0.0788  0.4028 -0.4986
 2908SOL    HW110718   1.644   3.375   2.875  2.2805 -1.1192 -0.1229
 2908SOL    HW210719   1.631   3.521   2.838 -2.0239 -1.6249 -1.0230
 2909SOL     OW10720   7.804   7.008   4.415 -0.5398 -0.1728 -0.6611
 2909SOL    HW110721   7.774   6.951   4.486 -0.2961 -0.4639 -0.7902
 2909SOL    HW210722   7.815   7.093   4.456 -1.2505 -0.1329 -0.5424
 2910SOL     OW10723   8.249   3.903   2.596 -0.1645  0.6766  0.8169
 2910SOL    HW110724   8.238   3.819   2.552 -0.5762 -0.0966  2.3237
 2910SOL    HW210725   8.277   3.881   2.684 -2.4720  1.9680  1.9735
 2911SOL     OW10726   2.889   2.974   6.922 -0.1816  0.0064 -0.5610
 2911SOL    HW110727   2.852   2.887   6.909  0.8609 -0.2956 -1.7002
 2911SOL    HW210728   2.963   2.960   6.980  1.6139 -0.3574 -2.7880
 2912SOL     OW10729   6.660   3.316   1.037  0.2988 -0.3917 -0.0115
 2912SOL    HW110730   6.753   3.329   1.022  0.1174  1.5749  0.2758
 2912SOL    HW210731   6.643   3.227   1.008  1.9775 -0.3058 -1.4041
 2913SOL     OW10732   5.756   7.176   3.288 -0.2413  0.2932 -0.2874
 2913SOL    HW110733   5.668   7.196   3.256  0.1426  0.4533 -1.2779
 2913SOL    HW210734   5.745   7.164   3.382 -1.3649  0.0605 -0.4337
 2914SOL     OW10735   3.819   0.616   3.269  0.2575 -0.2838 -0.1889
 2914SOL    HW110736   3.852   0.684   3.210  0.7752  0.9719  1.4728
 2914SOL    HW210737   3.730   0.598   3.238  1.1322 -1.0142 -2.4431
 2915SOL     OW10738   8.050   8.479   5.306 -0.5765  0.3380 -0.2028
 2915SOL    HW110739   8.064   8.453   5.397 -0.5804  1.6927  0.2131
 2915SOL    HW210740   8.126   8.447   5.259  0.5901  1.6166  0.7287
 2916SOL     OW10741   8.310   4.191   1.369  0.1769  0.3563 -0.9218
 2916SOL    HW110742   8.240   4.126   1.385 -0.7616  1.4012 -0.6648
 2916SOL    HW210743   8.335   4.219   1.457 -0.7863  1.7384 -1.0632
 2917SOL     OW10744   6.085   7.010   1.798  0.4472  0.1042 -0.4825
 2917SOL    HW110745   6.016   7.057   1.847 -0.0003  0.0080 -1.0109
 2917SOL    HW210746   6.060   7.020   1.706  0.9029 -0.3164 -0.6539
 2918SOL     OW10747   2.565   1.556   2.124  0.1093  0.0786 -0.3986
 2918SOL    HW110748   2.472   1.579   2.136  0.2625  0.7161 -0.4032
 2918SOL    HW210749   2.585   1.499   2.198  0.0880  1.0863  0.3975
 2919SOL     OW10750   2.891   8.182   3.408  0.0322 -0.3974  0.0073
 2919SOL    HW110751   2.895   8.226   3.323  0.6335 -0.3469  0.0528
 2919SOL    HW210752   2.932   8.097   3.393 -2.1203 -1.4385 -0.3484
 2920SOL     OW10753   2.975   6.687   6.172 -0.8101  0.2744 -0.1683
 2920SOL    HW110754   3.035   6.755   6.141  0.5936 -1.2115 -0.8590
 2920SOL    HW210755   3.025   6.639   6.239 -0.0218 -2.7023 -2.6295
 2921SOL     OW10756   3.182   1.938   2.637 -0.7341 -0.0449 -0.4073
 2921SOL    HW110757   3.224   1.950   2.552 -0.9693  1.8691 -0.2907
 2921SOL    HW210758   3.253   1.910   2.695 -0.4278 -0.6713 -1.0701
 2922SOL     OW10759   5.351   3.481   2.704 -0.2536  0.9636  0.5857
 2922SOL    HW110760   5.444   3.485   2.727  0.0627 -0.0637 -0.3859
 2922SOL    HW210761   5.307   3.529   2.773  0.7785 -0.5805  2.4249
 2923SOL     OW10762   2.305   1.603   1.130 -0.5957  0.3642  0.2315
 2923SOL    HW110763   2.270   1.691   1.116  0.8329  0.9844  0.4211
 2923SOL    HW210764   2.230   1.551   1.157 -1.9513  0.9620 -2.1131
 2924SOL     OW10765   5.516   4.633   3.830  0.2700 -0.4974 -0.4185
 2924SOL    HW110766   5.527   4.563   3.894  1.2452  0.1404  0.1212
 2924SOL    HW210767   5.492   4.710   3.881 -1.4845 -0.5571 -1.0680
 2925SOL     OW10768   3.276   3.769   3.853 -0.1603  0.0357 -0.2612
 2925SOL    HW110769   3.187   3.745   3.827 -0.7249  0.1937  1.4432
 2925SOL    HW210770   3.283   3.861   3.827 -1.3599  0.7297  1.6130
 2926SOL     OW10771   7.160   2.111   1.031  0.0057 -0.0101  0.7568
 2926SOL    HW110772   7.253   2.090   1.039  0.2643  1.2897  1.3654
 2926SOL    HW210773   7.139   2.161   1.110 -0.4957  2.1363 -0.6341
 2927SOL     OW10774   4.528   4.459   2.199  0.5274  0.0811  0.4122
 2927SOL    HW110775   4.454   4.405   2.225  0.5369  0.0782  0.4333
 2927SOL    HW210776   4.492   4.519   2.134  0.5470 -0.0418  0.2868
 2928SOL     OW10777   7.139   7.525   3.310  0.0408 -0.1996 -0.2579
 2928SOL    HW110778   7.100   7.484   3.388  0.6687 -0.4220 -0.0551
 2928SOL    HW210779   7.065   7.568   3.266 -0.3176 -0.0727  0.4567
 2929SOL     OW10780   8.089   3.173   3.352 -0.3318  0.6733 -0.2171
 2929SOL    HW110781   8.112   3.237   3.285  0.1575 -0.3639 -1.0687
 2929SOL    HW210782   8.064   3.226   3.428  1.6779  1.8968 -0.3164
 2930SOL     OW10783   7.889   2.250   4.384 -1.0304  0.3776 -0.0741
 2930SOL    HW110784   7.867   2.285   4.471 -2.8376  0.7776 -0.6465
 2930SOL    HW210785   7.959   2.306   4.352 -1.4362  1.2207  0.4854
 2931SOL     OW10786   8.476   4.902   6.894  0.3141  0.2759 -0.6388
 2931SOL    HW110787   8.454   4.991   6.921  0.5457  1.1630 -3.1734
 2931SOL    HW210788   8.556   4.911   6.843 -1.1238 -0.8956 -3.3169
 2932SOL     OW10789   4.766   6.774   4.604 -0.3971 -0.4037 -0.4488
 2932SOL    HW110790   4.731   6.704   4.549 -1.3738  0.0506 -0.4283
 2932SOL    HW210791   4.696   6.839   4.609  0.4592  0.5584 -0.4157
 2933SOL     OW10792   7.973   6.539   6.873  0.1384  0.4789 -0.1122
 2933SOL    HW110793   7.979   6.623   6.826  1.4968  1.0222  0.9867
 2933SOL    HW210794   7.905   6.553   6.939  0.6018  0.8471  0.2952
 2934SOL     OW10795   1.886   4.379   3.946  0.7084  0.0050  0.1262
 2934SOL    HW110796   1.938   4.459   3.953 -0.0718  0.4593  0.8781
 2934SOL    HW210797   1.801   4.401   3.983  0.4984 -1.1944  0.4239
 2935SOL     OW10798   5.560   7.181   8.565 -0.0809 -0.2212  0.2446
 2935SOL    HW110799   5.474   7.215   8.593  0.4728  0.2179  1.4715
 2935SOL    HW210800   5.540   7.127   8.489 -1.4592 -0.1289  0.5067
 2936SOL     OW10801   3.704   8.612   7.216  0.0158  0.1511 -0.5456
 2936SOL    HW110802   3.776   8.560   7.251 -0.2168 -0.7480 -1.3330
 2936SOL    HW210803   3.630   8.591   7.273  0.0756  0.0968 -0.4875
 2937SOL     OW10804   0.960   7.169   1.240 -0.0271  0.1595 -0.5390
 2937SOL    HW110805   0.972   7.264   1.234  0.7772  0.0110 -1.3910
 2937SOL    HW210806   0.957   7.139   1.149 -1.1577 -0.5361 -0.2953
 2938SOL     OW10807   6.544   4.856   2.697  0.0845 -0.4194 -0.0643
 2938SOL    HW110808   6.630   4.850   2.656  0.4881  0.6088  0.5920
 2938SOL    HW210809   6.484   4.813   2.636  0.8024  0.2901 -1.2890
 2939SOL     OW10810   6.068   0.901   6.991  0.5763  0.6501  0.0729
 2939SOL    HW110811   6.074   0.844   6.915  1.4519 -0.1997  0.7451
 2939SOL    HW210812   5.992   0.869   7.040  0.6980  0.4551  0.1347
 2940SOL     OW10813   2.848   5.213   8.642 -0.0872 -0.1697 -0.2966
 2940SOL    HW110814   2.868   5.278   8.709  0.4868 -0.4384 -0.2013
 2940SOL    HW210815   2.780   5.253   8.589  1.4818  1.2451 -1.3176
 2941SOL     OW10816   7.637   6.541   8.547 -0.1395  0.1746 -0.7385
 2941SOL    HW110817   7.666   6.539   8.638  0.3626  1.0819 -0.8679
 2941SOL    HW210818   7.716   6.562   8.497 -0.4319 -0.2274 -1.3761
 2942SOL     OW10819   5.220   6.473   8.519 -0.2016  0.0735  0.0587
 2942SOL    HW110820   5.194   6.397   8.572 -0.9424 -0.0820 -0.5160
 2942SOL    HW210821   5.283   6.519   8.574 -1.2110  0.1175  1.2373
 2943SOL     OW10822   2.017   2.659   7.419  0.3229  0.3676  0.0178
 2943SOL    HW110823   2.038   2.591   7.482 -0.7671  1.4835  1.6595
 2943SOL    HW210824   1.928   2.638   7.389  0.7556 -0.0445 -1.0399
 2944SOL     OW10825   1.365   7.961   5.351 -0.1080 -0.3641  0.5246
 2944SOL    HW110826   1.308   7.887   5.331 -0.3183 -0.4296  1.3436
 2944SOL    HW210827   1.320   8.009   5.420  1.5854 -1.3464  2.4020
 2945SOL     OW10828   6.107   8.782   1.788  0.3087  0.0314  0.7590
 2945SOL    HW110829   6.095   8.727   1.710 -1.0756  0.8749  0.3512
 2945SOL    HW210830   6.129   8.868   1.754  2.1231 -0.1495  1.3930
 2946SOL     OW10831   1.857   1.885   3.269  0.3057  0.7475  0.2616
 2946SOL    HW110832   1.794   1.840   3.213  1.9089 -0.5380 -0.5856
 2946SOL    HW210833   1.868   1.971   3.229  2.0570 -0.4321 -2.0176
 2947SOL     OW10834   3.283   5.776   2.126 -0.1527 -0.0134 -0.9634
 2947SOL    HW110835   3.292   5.864   2.088  0.4228  0.8108  0.9399
 2947SOL    HW210836   3.284   5.791   2.220 -0.7215 -2.0324 -0.5897
 2948SOL     OW10837   3.370   6.311   0.779  0.4738  0.2790  0.2685
 2948SOL    HW110838   3.422   6.285   0.855 -1.4210 -1.0993  1.1519
 2948SOL    HW210839   3.402   6.255   0.708 -0.2094 -0.9924  0.9533
 2949SOL     OW10840   5.591   7.550   0.872 -0.0573  0.0935  0.1707
 2949SOL    HW110841   5.533   7.531   0.945 -1.7860 -0.8996 -1.3789
 2949SOL    HW210842   5.603   7.645   0.874 -0.8136  0.1741  1.1986
 2950SOL     OW10843   5.784   1.882   6.276  0.0985 -0.3326  0.1235
 2950SOL    HW110844   5.773   1.799   6.322  0.5172  0.5120  1.8352
 2950SOL    HW210845   5.879   1.895   6.273  0.1035 -0.5324 -1.3484
 2951SOL     OW10846   5.651   6.740   6.136 -0.3582 -0.1008 -0.5825
 2951SOL    HW110847   5.560   6.752   6.161 -0.2247 -1.8816  0.9572
 2951SOL    HW210848   5.674   6.654   6.170  2.9905  1.7502  2.6090
 2952SOL     OW10849   6.738   7.606   7.934  0.4164 -0.4148  0.3890
 2952SOL    HW110850   6.821   7.559   7.945  0.6744  0.1277  0.8043
 2952SOL    HW210851   6.762   7.687   7.888  0.0451 -0.4672  0.0937
 2953SOL     OW10852   8.139   5.671   3.762 -0.1155  0.7448 -0.3426
 2953SOL    HW110853   8.152   5.594   3.818 -1.5032 -1.1466 -2.4295
 2953SOL    HW210854   8.213   5.728   3.782  0.9274 -1.0811  1.3728
 2954SOL     OW10855   0.814   4.891   7.161  0.3396  0.4609  0.8105
 2954SOL    HW110856   0.819   4.837   7.240 -0.9758 -0.5786  0.2348
 2954SOL    HW210857   0.751   4.960   7.182 -2.4485 -1.5796 -0.2068
 2955SOL     OW10858   8.271   4.187   3.655 -0.0863 -0.3680 -1.0695
 2955SOL    HW110859   8.262   4.092   3.662  0.2735 -0.3811 -0.7553
 2955SOL    HW210860   8.194   4.222   3.699 -0.7362 -0.5176 -2.0497
 2956SOL     OW10861   4.216   0.538   5.220 -0.0423 -0.5294  0.2560
 2956SOL    HW110862   4.203   0.630   5.198  1.1899  0.0373  1.6651
 2956SOL    HW210863   4.252   0.540   5.309  2.4182 -2.2138 -0.5858
 2957SOL     OW10864   6.506   8.242   4.393  0.2814 -0.3841  0.1449
 2957SOL    HW110865   6.433   8.304   4.385  0.6322 -0.0911 -0.8830
 2957SOL    HW210866   6.467   8.163   4.430 -0.5799 -0.2691 -0.5101
 2958SOL     OW10867   7.623   1.081   0.103 -0.3704  0.2190 -0.6045
 2958SOL    HW110868   7.681   1.087   0.027  2.5801  1.7755  1.5703
 2958SOL    HW210869   7.600   0.988   0.108  0.7034 -0.2047 -2.4445
 2959SOL     OW10870   2.571   3.196   5.214 -0.3540  0.5847  0.1549
 2959SOL    HW110871   2.641   3.183   5.278 -0.4428  1.7842  0.5356
 2959SOL    HW210872   2.499   3.142   5.245  0.5268 -1.0090 -0.4857
 2960SOL     OW10873   0.639   6.648   8.064 -0.4480  0.1195  0.0755
 2960SOL    HW110874   0.600   6.734   8.077  1.3829  1.0915 -0.5442
 2960SOL    HW210875   0.733   6.662   8.073 -0.1128 -1.8526  0.1222
 2961SOL     OW10876   0.501   3.707   8.513 -0.2084 -0.8389 -0.4595
 2961SOL    HW110877   0.510   3.629   8.567  0.1624 -0.4538  0.0448
 2961SOL    HW210878   0.485   3.778   8.576 -0.2442 -0.4617 -0.8874
 2962SOL     OW10879   7.481   6.866   4.175  0.4518  0.1139  0.0168
 2962SOL    HW110880   7.400   6.890   4.130  1.1371 -1.0004 -1.9234
 2962SOL    HW210881   7.493   6.773   4.156  1.0714 -0.2876  2.1351
 2963SOL     OW10882   0.938   6.192   2.981  1.0434 -0.7532 -0.1790
 2963SOL    HW110883   0.929   6.272   3.033 -0.0968 -1.0879  0.1759
 2963SOL    HW210884   0.859   6.190   2.926 -0.7021 -3.2741  2.1818
 2964SOL     OW10885   0.161   1.106   5.366 -0.0135  0.1421 -0.4238
 2964SOL    HW110886   0.192   1.110   5.456  1.2766  1.1401 -0.8789
 2964SOL    HW210887   0.078   1.058   5.371 -0.9772  1.8767  1.5398
 2965SOL     OW10888   2.879   2.157   5.304 -0.2649  0.3633  0.2580
 2965SOL    HW110889   2.905   2.169   5.395 -0.8062  1.1089  0.3132
 2965SOL    HW210890   2.785   2.174   5.302 -0.6986 -1.7400 -0.0565
 2966SOL     OW10891   0.704   7.023   6.524  0.2273 -0.5339 -0.2413
 2966SOL    HW110892   0.648   6.946   6.528 -0.2395 -0.2232 -0.5877
 2966SOL    HW210893   0.762   7.015   6.599  1.1595 -1.9629 -1.0850
 2967SOL     OW10894   5.688   7.412   1.426 -0.3173  0.0866  0.3987
 2967SOL    HW110895   5.665   7.489   1.374  0.8540 -0.0397 -0.3225
 2967SOL    HW210896   5.618   7.406   1.491 -0.8416  1.3011 -0.0248
 2968SOL     OW10897   3.067   3.371   5.681 -0.4808 -0.6293 -0.0799
 2968SOL    HW110898   3.010   3.296   5.666  0.0305 -0.7571 -1.5271
 2968SOL    HW210899   3.153   3.333   5.700 -0.8688 -0.4511  2.4896
 2969SOL     OW10900   5.719   2.408   8.120  0.0796 -0.3557  0.6037
 2969SOL    HW110901   5.688   2.431   8.032 -0.3990  0.0576  0.8759
 2969SOL    HW210902   5.655   2.447   8.179  0.5967 -0.3213  1.1513
 2970SOL     OW10903   3.274   4.156   8.423 -0.1558  0.8472  0.0210
 2970SOL    HW110904   3.255   4.090   8.489  0.3732 -1.1056 -1.6792
 2970SOL    HW210905   3.191   4.202   8.410 -1.3105 -1.2812 -0.6058
 2971SOL     OW10906   2.659   3.250   4.917 -0.3092  0.2395  0.1297
 2971SOL    HW110907   2.723   3.189   4.882 -2.4104 -2.3211  0.4798
 2971SOL    HW210908   2.710   3.309   4.973  1.9246 -0.6136 -0.8938
 2972SOL     OW10909   7.572   8.071   8.351  0.2923 -0.2113  0.1852
 2972SOL    HW110910   7.578   8.165   8.371  1.9637  0.5142 -3.0672
 2972SOL    HW210911   7.485   8.061   8.312  0.5353  0.2457 -0.4919
 2973SOL     OW10912   7.832   0.270   4.789 -0.2409  0.6135 -0.5537
 2973SOL    HW110913   7.821   0.218   4.869  1.4873 -0.6020 -1.0374
 2973SOL    HW210914   7.746   0.309   4.774 -1.7192 -2.2309 -0.1961
 2974SOL     OW10915   2.113   1.624   1.439 -0.2741 -0.1315 -0.0860
 2974SOL    HW110916   2.141   1.551   1.385 -1.4265 -1.0612  0.5220
 2974SOL    HW210917   2.044   1.667   1.389 -0.3074 -0.0819  0.0015
 2975SOL     OW10918   0.866   0.086   3.431 -0.3085  0.2553 -0.2541
 2975SOL    HW110919   0.893   0.011   3.485  0.7493  0.6076 -0.2807
 2975SOL    HW210920   0.804   0.134   3.487 -1.8779 -1.2118 -0.6443
 2976SOL     OW10921   8.082   1.185   7.609  0.1636 -0.2797  0.8737
 2976SOL    HW110922   8.082   1.278   7.589 -0.9962 -0.1384  1.4862
 2976SOL    HW210923   7.996   1.168   7.647 -0.2954 -1.9300 -0.7258
 2977SOL     OW10924   3.312   6.437   8.749  0.1761 -0.3237  0.4584
 2977SOL    HW110925   3.293   6.471   8.836 -0.2469 -2.4704  1.2649
 2977SOL    HW210926   3.301   6.343   8.757  2.4063 -0.8376 -1.3328
 2978SOL     OW10927   8.643   5.302   3.766 -0.2239  0.0419  0.0861
 2978SOL    HW110928   8.624   5.311   3.673 -2.6111  0.4322  0.5600
 2978SOL    HW210929   8.561   5.274   3.805  0.5415  0.5253  2.1911
 2979SOL     OW10930   5.436   6.364   7.568  0.1715  0.6274 -0.1455
 2979SOL    HW110931   5.355   6.415   7.561 -0.9087 -0.8687  0.8995
 2979SOL    HW210932   5.430   6.320   7.653  1.4609 -0.5711 -0.6253
 2980SOL     OW10933   6.316   3.300   6.100  0.4740 -0.0638 -0.0066
 2980SOL    HW110934   6.239   3.248   6.124  0.2183  0.1166 -0.4270
 2980SOL    HW210935   6.290   3.346   6.021  1.0452 -0.0612 -0.1962
 2981SOL     OW10936   2.872   3.583   3.032 -0.1620  0.5311  0.2774
 2981SOL    HW110937   2.781   3.590   3.002 -0.5040  1.4285  1.4400
 2981SOL    HW210938   2.901   3.674   3.042  0.8449  0.2501 -0.0274
 2982SOL     OW10939   6.753   5.615   7.291  0.0490  0.2731 -0.3165
 2982SOL    HW110940   6.825   5.552   7.295 -0.0371  0.2032  0.1824
 2982SOL    HW210941   6.760   5.653   7.204  0.9247  0.5301 -0.1473
 2983SOL     OW10942   2.287   7.074   2.883  0.3738 -0.3150  1.0808
 2983SOL    HW110943   2.326   7.161   2.886 -0.1572 -0.0857  1.3928
 2983SOL    HW210944   2.197   7.089   2.853  0.2168 -0.7330  1.3447
 2984SOL     OW10945   5.668   0.927   3.410 -0.5132 -0.3899  0.0785
 2984SOL    HW110946   5.685   1.010   3.454  0.0476 -1.1288  1.3203
 2984SOL    HW210947   5.607   0.948   3.339  0.3974  1.2318 -0.2588
 2985SOL     OW10948   5.578   4.154   5.390  0.6315 -0.2243  0.4836
 2985SOL    HW110949   5.620   4.096   5.327  1.0341  0.4794  0.0812
 2985SOL    HW210950   5.632   4.233   5.388 -0.4710  0.5501  0.2607
 2986SOL     OW10951   0.432   8.577   5.679 -0.3109  0.7934 -0.2538
 2986SOL    HW110952   0.516   8.583   5.724  0.1915 -1.2787 -0.8319
 2986SOL    HW210953   0.367   8.574   5.749  0.5869 -6.4477  1.0243
 2987SOL     OW10954   1.021   0.928   7.056  0.0903  0.1153  0.3980
 2987SOL    HW110955   1.115   0.919   7.072  0.3569  0.4538 -0.8869
 2987SOL    HW210956   0.982   0.851   7.097  0.9070  0.0483  1.0674
 2988SOL     OW10957   1.740   6.749   8.146 -0.3157 -0.3169 -0.3095
 2988SOL    HW110958   1.808   6.803   8.106 -0.9433  0.1764 -0.7227
 2988SOL    HW210959   1.776   6.724   8.231  0.7154 -0.7381 -0.8521
 2989SOL     OW10960   8.412   6.704   8.704  0.1536 -0.2643 -0.3410
 2989SOL    HW110961   8.489   6.688   8.758  0.1173  0.3919 -0.0855
 2989SOL    HW210962   8.442   6.765   8.636 -0.3735  0.7970  0.3600
 2990SOL     OW10963   4.748   1.617   7.250  0.1783 -0.0585 -0.3346
 2990SOL    HW110964   4.838   1.611   7.284 -0.0323  2.0411  0.7804
 2990SOL    HW210965   4.755   1.589   7.159  1.6980 -1.2314  0.0908
 2991SOL     OW10966   2.146   6.692   6.374 -0.0612 -0.0594  0.2507
 2991SOL    HW110967   2.207   6.729   6.310  0.9371 -1.4497  0.3358
 2991SOL    HW210968   2.081   6.760   6.388  0.7644  0.9923 -0.8206
 2992SOL     OW10969   7.255   2.170   1.640  0.5449  0.2896  0.9166
 2992SOL    HW110970   7.248   2.117   1.560  0.6975  0.2181  0.9492
 2992SOL    HW210971   7.303   2.114   1.701 -2.3923 -0.9795  2.2189
 2993SOL     OW10972   1.055   0.530   0.443 -0.1415 -0.3086 -0.1932
 2993SOL    HW110973   1.136   0.492   0.411 -0.5345 -0.2786 -1.2685
 2993SOL    HW210974   1.075   0.560   0.532  1.7255  1.8344 -1.2232
 2994SOL     OW10975   2.020   4.155   8.056 -0.1270  0.7136 -0.6786
 2994SOL    HW110976   1.966   4.133   8.132  0.7768 -0.5234 -0.3763
 2994SOL    HW210977   1.989   4.097   7.987  1.4757 -0.8013 -0.2057
 2995SOL     OW10978   7.767   1.124   5.013  0.2006  0.4636  0.1838
 2995SOL    HW110979   7.719   1.103   4.933 -0.3089  1.5927  0.1766
 2995SOL    HW210980   7.740   1.056   5.075 -0.8307  0.6453 -0.0503
 2996SOL     OW10981   7.517   5.685   8.397  0.0594 -0.2383  0.1316
 2996SOL    HW110982   7.524   5.590   8.388 -1.4181 -0.4914  1.2017
 2996SOL    HW210983   7.601   5.719   8.366 -0.3139 -1.6949 -2.7937
 2997SOL     OW10984   3.634   7.354   6.198  0.3307 -0.3456  0.1580
 2997SOL    HW110985   3.648   7.259   6.201 -0.8834 -0.5264  0.7460
 2997SOL    HW210986   3.722   7.391   6.190  0.7446 -1.5594 -1.2706
 2998SOL     OW10987   2.405   2.198   8.465  0.2450  0.0524 -0.5176
 2998SOL    HW110988   2.327   2.180   8.518 -0.2630  2.2515 -0.4038
 2998SOL    HW210989   2.477   2.200   8.529  0.7112 -3.2131 -0.7767
 2999SOL     OW10990   8.458   8.803   4.982  0.1862  0.2174  0.2566
 2999SOL    HW110991   8.428   8.874   5.040  0.6563 -0.3552  1.2172
 2999SOL    HW210992   8.414   8.725   5.015  0.1577 -0.0473 -0.4077
 3000SOL     OW10993   8.120   2.784   4.012  1.0465  0.3025  0.2111
 3000SOL    HW110994   8.032   2.757   3.984  1.1351  1.8528 -1.7442
 3000SOL    HW210995   8.179   2.736   3.954  1.4170  0.6557  0.2972
 3001SOL     OW10996   0.991   2.198   4.189  0.2816 -0.1727 -0.1464
 3001SOL    HW110997   1.023   2.130   4.248  1.0225  0.7579  0.5602
 3001SOL    HW210998   1.070   2.234   4.149 -0.2137 -0.7996 -1.7488
 3002SOL     OW10999   7.162   4.113   0.776  0.1342  0.2297  0.4720
 3002SOL    HW111000   7.242   4.060   0.778  1.4410  2.1188  1.4453
 3002SOL    HW211001   7.093   4.052   0.804  1.2788 -1.3334  0.0646
 3003SOL     OW11002   0.008   5.143   5.454 -0.0114  0.9415  0.5337
 3003SOL    HW111003   0.052   5.191   5.384  2.0780 -0.0322  1.1203
 3003SOL    HW211004  -0.057   5.089   5.408  2.6730 -1.2305 -1.0137
 3004SOL     OW11005   8.814   8.033   2.272 -0.5867 -0.4832 -0.2979
 3004SOL    HW111006   8.891   8.089   2.278 -0.4034 -0.8425  0.9327
 3004SOL    HW211007   8.822   7.991   2.186 -0.5824  1.1287 -1.1406
 3005SOL     OW11008   3.212   6.897   8.002  0.1278 -0.3358  0.8573
 3005SOL    HW111009   3.162   6.925   7.925 -0.7040  1.2124  1.8977
 3005SOL    HW211010   3.281   6.841   7.967 -1.3533 -1.2237 -0.8023
 3006SOL     OW11011   5.689   2.460   3.712  0.5187 -0.3938 -0.2513
 3006SOL    HW111012   5.618   2.507   3.667  1.2257  0.3384 -0.6137
 3006SOL    HW211013   5.760   2.523   3.717  0.5086 -0.4752  1.8272
 3007SOL     OW11014   2.823   0.927   7.169 -0.2481 -0.0848 -0.7353
 3007SOL    HW111015   2.770   0.976   7.106  0.6262  2.1415  0.1234
 3007SOL    HW211016   2.901   0.902   7.121  0.6534  2.0623 -0.4882
 3008SOL     OW11017   8.702   7.542   3.616 -0.4027 -0.3559 -0.1634
 3008SOL    HW111018   8.744   7.470   3.569 -1.8430 -0.6097 -1.1406
 3008SOL    HW211019   8.750   7.549   3.698  2.6937  0.5349 -1.8640
 3009SOL     OW11020   3.119   7.414   7.560  0.2264  0.3150  0.2498
 3009SOL    HW111021   3.154   7.390   7.474 -1.7994 -0.0759 -0.5281
 3009SOL    HW211022   3.131   7.509   7.566  1.7891  0.1396  0.2374
 3010SOL     OW11023   7.042   1.527   4.815  0.4243 -0.3747  0.7513
 3010SOL    HW111024   7.135   1.521   4.839  0.7490  0.4349 -0.2110
 3010SOL    HW211025   6.995   1.505   4.895  1.4396  1.7618  2.0383
 3011SOL     OW11026   5.736   1.438   2.427 -0.2540  0.2621 -0.2686
 3011SOL    HW111027   5.648   1.475   2.439 -0.4672  0.5717 -2.3844
 3011SOL    HW211028   5.775   1.491   2.357  1.6525  0.1635  0.6632
 3012SOL     OW11029   2.570   1.412   2.386 -0.3037 -0.0713  0.2447
 3012SOL    HW111030   2.665   1.421   2.378 -0.2354 -2.2192 -4.6342
 3012SOL    HW211031   2.558   1.338   2.446  1.1776 -0.6214 -0.0911
 3013SOL     OW11032   0.409   0.500   7.190  0.4943 -0.0667 -0.8579
 3013SOL    HW111033   0.402   0.560   7.265 -1.1763 -1.0497 -0.1660
 3013SOL    HW211034   0.455   0.551   7.123  0.8340  1.3130  0.3646
 3014SOL     OW11035   5.554   4.782   1.378 -0.5361 -0.6346  0.3924
 3014SOL    HW111036   5.538   4.788   1.472 -1.8257 -2.1700  0.3304
 3014SOL    HW211037   5.640   4.822   1.365  0.7908 -2.5197  2.5873
 3015SOL     OW11038   0.579   3.634   7.421 -0.0030  0.5766  0.0360
 3015SOL    HW111039   0.518   3.688   7.370  0.0985 -0.1263 -0.8601
 3015SOL    HW211040   0.591   3.555   7.369 -0.6693 -0.6319  1.6302
 3016SOL     OW11041   4.340   5.146   3.863 -0.1633  0.5917 -0.8439
 3016SOL    HW111042   4.280   5.073   3.878  2.5839 -1.5045  0.7345
 3016SOL    HW211043   4.382   5.125   3.780  0.3652  0.5576 -0.5704
 3017SOL     OW11044   5.307   3.320   7.064  0.3614 -0.8588  0.5283
 3017SOL    HW111045   5.340   3.365   7.141 -0.5803  1.2658 -0.2433
 3017SOL    HW211046   5.329   3.377   6.990 -0.9459 -1.5962 -0.4943
 3018SOL     OW11047   5.412   0.620   2.641  0.4789  0.2682  0.2640
 3018SOL    HW111048   5.360   0.628   2.721  0.0186  2.6590 -0.2028
 3018SOL    HW211049   5.348   0.629   2.570  0.9607 -1.2947 -0.4278
 3019SOL     OW11050   4.912   3.364   3.772 -0.1806  0.0004 -0.6085
 3019SOL    HW111051   4.876   3.276   3.780  1.1829 -0.6648 -1.3726
 3019SOL    HW211052   4.938   3.371   3.680  1.4254  0.4711 -0.1651
 3020SOL     OW11053   3.044   8.680   3.451 -0.5326 -0.1288 -0.1339
 3020SOL    HW111054   3.043   8.700   3.358 -1.5026  1.7976  0.2273
 3020SOL    HW211055   2.952   8.664   3.473 -0.5082  0.8025  0.7191
 3021SOL     OW11056   6.877   1.581   4.166  0.7435 -0.3042  0.9373
 3021SOL    HW111057   6.877   1.595   4.071  0.3936  1.1646  1.1381
 3021SOL    HW211058   6.921   1.496   4.177  2.0025  0.1177 -0.4460
 3022SOL     OW11059   5.436   1.735   7.681  0.4674 -0.5604 -0.0813
 3022SOL    HW111060   5.395   1.751   7.596  0.2571  0.6728  0.2447
 3022SOL    HW211061   5.523   1.774   7.673  0.7199 -1.0913  0.0315
 3023SOL     OW11062   2.466   1.052   2.149 -0.1538 -0.3617  0.5640
 3023SOL    HW111063   2.500   1.130   2.105 -2.9049 -0.7171 -2.5086
 3023SOL    HW211064   2.447   1.081   2.238  1.0367  1.7916  0.1820
 3024SOL     OW11065   3.806   3.510   3.341 -0.0983 -0.7206  0.1901
 3024SOL    HW111066   3.720   3.552   3.342  0.5590  0.7424 -1.0643
 3024SOL    HW211067   3.803   3.451   3.266 -0.1194 -0.9306  0.3556
 3025SOL     OW11068   2.268   6.667   2.856  0.3793 -0.2246  0.1526
 3025SOL    HW111069   2.189   6.721   2.847  0.4055  0.0304  1.2768
 3025SOL    HW211070   2.265   6.608   2.781  0.5205  1.5552 -1.3203
 3026SOL     OW11071   7.633   0.861   7.992 -0.0086 -0.2433 -0.0706
 3026SOL    HW111072   7.693   0.798   7.951  1.1227  1.1357 -0.5943
 3026SOL    HW211073   7.587   0.901   7.918  0.8139  1.0445  0.0974
 3027SOL     OW11074   7.473   8.295   8.573 -0.3229 -0.0284 -0.3718
 3027SOL    HW111075   7.481   8.268   8.664 -2.1024  2.6110  0.6683
 3027SOL    HW211076   7.383   8.274   8.549 -0.5938  1.3974 -0.7093
 3028SOL     OW11077   8.007   2.574   4.198 -0.7078 -0.3156 -0.4051
 3028SOL    HW111078   7.983   2.638   4.265 -0.4991  1.2646 -1.7852
 3028SOL    HW211079   7.924   2.548   4.159 -0.7046 -0.1411 -0.5241
 3029SOL     OW11080   7.105   0.953   2.697 -0.4932 -0.5991  0.6190
 3029SOL    HW111081   7.164   1.025   2.721  0.5888 -1.5294  0.7929
 3029SOL    HW211082   7.027   0.968   2.751 -1.4661  1.9666 -1.2503
 3030SOL     OW11083   8.104   4.226   7.180 -0.3430  0.3036 -0.4148
 3030SOL    HW111084   8.168   4.181   7.234  0.7241  2.5584  0.3183
 3030SOL    HW211085   8.040   4.159   7.157  0.6600 -1.3367  1.3402
 3031SOL     OW11086   4.963   5.231   7.513 -0.2585 -0.4072  0.1913
 3031SOL    HW111087   5.036   5.169   7.516  1.1915  1.1396 -0.8632
 3031SOL    HW211088   4.927   5.221   7.425 -1.8393 -1.6487  0.9279
 3032SOL     OW11089   8.037   8.236   1.691  0.1099 -0.7621 -0.2227
 3032SOL    HW111090   8.099   8.236   1.764 -0.7987  1.4028  0.6290
 3032SOL    HW211091   7.953   8.214   1.731 -0.6899  1.9870 -0.2433
 3033SOL     OW11092   7.636   2.829   1.056 -0.3206  0.1101 -0.3123
 3033SOL    HW111093   7.630   2.791   0.968 -0.6815 -0.6508  0.0288
 3033SOL    HW211094   7.727   2.816   1.082 -0.1537  0.5525 -0.6633
 3034SOL     OW11095   2.012   6.656   6.745 -0.5398  0.0099 -0.1079
 3034SOL    HW111096   1.976   6.623   6.662  0.0141  0.6394 -0.6005
 3034SOL    HW211097   1.940   6.706   6.783 -1.0524 -0.9053  0.1651
 3035SOL     OW11098   7.914   6.912   6.748  0.0874 -0.0155 -0.3891
 3035SOL    HW111099   7.920   6.932   6.841  0.0274  0.2027 -0.4336
 3035SOL    HW211100   7.836   6.857   6.740  1.2352 -1.8278  0.0085
 3036SOL     OW11101   1.353   6.682   4.463  0.0666  0.2176  0.4113
 3036SOL    HW111102   1.311   6.742   4.525 -0.4330  1.7615 -1.3363
 3036SOL    HW211103   1.444   6.710   4.461  0.6306 -1.2914  2.0541
 3037SOL     OW11104   1.602   4.307   1.902 -0.1472  0.3024  0.4545
 3037SOL    HW111105   1.557   4.370   1.958 -1.2976 -0.2538  0.1890
 3037SOL    HW211106   1.679   4.282   1.951 -1.5482 -0.7958  2.2197
 3038SOL     OW11107   5.404   2.513   1.884 -0.1184  0.5750  0.2147
 3038SOL    HW111108   5.450   2.582   1.836 -1.9573  1.7858  0.0871
 3038SOL    HW211109   5.415   2.537   1.976  0.4047  0.2654  0.2321
 3039SOL     OW11110   7.776   3.532   8.386  0.1680  0.3113  0.7833
 3039SOL    HW111111   7.746   3.512   8.297 -1.2952  0.9396  1.1031
 3039SOL    HW211112   7.846   3.596   8.374 -0.3808  0.8010  0.0958
 3040SOL     OW11113   8.858   6.747   0.750  0.1712 -0.3693 -0.1960
 3040SOL    HW111114   8.802   6.672   0.732 -1.2179  0.4713  0.4500
 3040SOL    HW211115   8.819   6.788   0.828 -0.4506  2.2449 -1.7507
 3041SOL     OW11116   0.437   4.017   4.069 -0.9192 -0.1564  0.1478
 3041SOL    HW111117   0.463   3.996   4.159 -0.0294 -0.1217 -0.0914
 3041SOL    HW211118   0.450   3.935   4.021  1.7831  0.5851 -0.6208
 3042SOL     OW11119   7.647   1.497   3.398  0.6410 -0.6162 -0.4546
 3042SOL    HW111120   7.710   1.426   3.416  1.2110  0.1366  0.6463
 3042SOL    HW211121   7.701   1.569   3.367  0.2253 -0.2169 -0.2585
 3043SOL     OW11122   7.510   1.135   5.171 -0.5277 -0.1042 -0.0588
 3043SOL    HW111123   7.589   1.185   5.192 -1.0389  0.9489 -0.5759
 3043SOL    HW211124   7.529   1.047   5.202  0.2507  0.4906  1.2556
 3044SOL     OW11125   5.074   4.397   0.360 -0.1899  0.3134  0.0625
 3044SOL    HW111126   5.136   4.361   0.297  2.1683  1.4470  1.6034
 3044SOL    HW211127   5.055   4.485   0.329  1.3926  1.0729  1.1091
 3045SOL     OW11128   4.810   2.502   0.897 -0.0091  0.3003  0.3506
 3045SOL    HW111129   4.861   2.454   0.832  0.6979  0.5387  0.7246
 3045SOL    HW211130   4.833   2.594   0.882  0.2984  0.3420  1.0496
 3046SOL     OW11131   6.714   4.242   8.192 -0.1525 -0.0863 -0.2387
 3046SOL    HW111132   6.764   4.164   8.216 -1.2462 -0.5492  0.6308
 3046SOL    HW211133   6.750   4.311   8.248  0.7856  0.0377 -0.9759
 3047SOL     OW11134   2.509   4.722   5.387 -0.2127  0.7422  1.0556
 3047SOL    HW111135   2.429   4.743   5.436 -0.1106  0.4729  1.3346
 3047SOL    HW211136   2.578   4.719   5.453  0.4471  3.0654  0.5947
 3048SOL     OW11137   3.385   1.858   4.995 -0.0163  0.1329  0.5008
 3048SOL    HW111138   3.420   1.896   4.914 -1.5219  3.7973  1.3930
 3048SOL    HW211139   3.447   1.883   5.063 -0.4162 -0.0688  0.9481
 3049SOL     OW11140   7.040   2.172   8.734  0.1779 -0.5777  0.7206
 3049SOL    HW111141   7.126   2.214   8.733 -0.2136  0.2158  0.1476
 3049SOL    HW211142   6.978   2.242   8.751 -0.1383 -1.6296  4.8550
 3050SOL     OW11143   3.125   6.585   6.379  0.1513 -0.3708 -0.7334
 3050SOL    HW111144   3.203   6.552   6.424  0.7088 -1.2040 -2.2253
 3050SOL    HW211145   3.122   6.678   6.402  0.8853 -0.5822  0.3201
 3051SOL     OW11146   1.139   2.907   3.476 -0.3153  0.3345  0.1284
 3051SOL    HW111147   1.097   2.845   3.417  0.2495  1.2710 -1.3254
 3051SOL    HW211148   1.185   2.853   3.540  0.9266 -0.8121 -1.6321
 3052SOL     OW11149   1.326   8.186   0.426  0.1784 -0.1401 -0.1609
 3052SOL    HW111150   1.348   8.201   0.334  0.2712 -0.3642 -0.1770
 3052SOL    HW211151   1.318   8.091   0.433 -0.8335 -0.0682 -0.1638
 3053SOL     OW11152   2.468   3.274   0.501 -0.0142  0.1086  0.2000
 3053SOL    HW111153   2.548   3.254   0.549 -0.9311 -0.3920  1.5934
 3053SOL    HW211154   2.441   3.190   0.464  0.5308  0.4374 -0.9742
 3054SOL     OW11155   0.175   4.700   0.860 -0.4166 -0.0659  0.1629
 3054SOL    HW111156   0.211   4.787   0.846  0.3154 -0.4170 -0.1700
 3054SOL    HW211157   0.122   4.682   0.783 -0.4770  0.0353  0.1807
 3055SOL     OW11158   0.315   5.488   7.896  0.5377 -0.3383 -0.0811
 3055SOL    HW111159   0.367   5.513   7.820 -2.3545 -0.0353 -2.1047
 3055SOL    HW211160   0.308   5.568   7.948  1.1556 -0.1106 -0.3377
 3056SOL     OW11161   8.116   7.026   1.893  0.1924  0.1155  0.3462
 3056SOL    HW111162   8.136   7.120   1.895  0.6825  0.0002  1.7660
 3056SOL    HW211163   8.155   6.991   1.973 -0.0365 -1.3008 -0.1275
 3057SOL     OW11164   7.755   6.700   7.428  0.1177  0.1911  0.2310
 3057SOL    HW111165   7.848   6.698   7.452  0.2873 -0.1441 -0.4132
 3057SOL    HW211166   7.709   6.671   7.507  0.5825  0.0510  0.4569
 3058SOL     OW11167   7.290   4.409   7.576  0.5829  0.1305  0.0868
 3058SOL    HW111168   7.230   4.476   7.543  0.9991 -0.3082 -1.7101
 3058SOL    HW211169   7.373   4.455   7.588  1.0659 -0.1296 -1.8371
 3059SOL     OW11170   8.060   6.058   0.388 -0.4432 -0.2926  0.0203
 3059SOL    HW111171   8.151   6.047   0.357  0.3765  1.4818  1.6418
 3059SOL    HW211172   8.065   6.045   0.482 -2.6161 -3.9087 -0.1538
 3060SOL     OW11173   1.364   4.800   8.711  0.2039 -0.2354 -0.3165
 3060SOL    HW111174   1.315   4.786   8.630 -1.4005 -0.1516  0.5907
 3060SOL    HW211175   1.330   4.734   8.772  0.2883  0.6547  0.7292
 3061SOL     OW11176   5.919   0.414   6.190  0.5125  0.2198  0.0924
 3061SOL    HW111177   5.861   0.355   6.142  0.4048  1.5133 -1.4645
 3061SOL    HW211178   5.885   0.414   6.280 -1.6890  0.6461 -0.6936
 3062SOL     OW11179   1.352   0.771   8.224  0.1252 -0.1158 -0.2102
 3062SOL    HW111180   1.424   0.820   8.265  0.0874 -0.5189  0.3558
 3062SOL    HW211181   1.391   0.686   8.202  0.0208 -0.0627 -0.5995
 3063SOL     OW11182   0.327   0.130   5.669 -0.1487 -0.3077 -0.0276
 3063SOL    HW111183   0.368   0.189   5.605 -1.0322 -2.0702 -2.3635
 3063SOL    HW211184   0.274   0.070   5.616 -1.7920 -1.2336  2.4819
 3064SOL     OW11185   6.672   0.462   0.174  0.2626  0.1116  0.1994
 3064SOL    HW111186   6.655   0.415   0.092 -1.4220 -0.1312  0.6554
 3064SOL    HW211187   6.618   0.416   0.239  0.2315  1.3742  1.0848
 3065SOL     OW11188   4.915   7.581   5.933  0.3735 -0.4331  0.3999
 3065SOL    HW111189   4.990   7.567   5.991  0.1021 -1.5131  0.5087
 3065SOL    HW211190   4.931   7.523   5.859  0.0494 -0.0505  0.0202
 3066SOL     OW11191   6.049   4.868   2.028  0.1383  0.4350 -0.2263
 3066SOL    HW111192   6.130   4.819   2.037 -0.1299 -0.4087 -1.9440
 3066SOL    HW211193   6.076   4.960   2.029  1.3178  0.1670 -1.9574
 3067SOL     OW11194   8.427   5.865   1.037 -0.2908 -0.6465 -0.2072
 3067SOL    HW111195   8.351   5.860   1.096  0.0458  1.8514  0.5992
 3067SOL    HW211196   8.417   5.950   0.994  2.2514 -0.0332  0.2596
 3068SOL     OW11197   4.217   3.503   5.940  0.0556  0.0463 -0.0526
 3068SOL    HW111198   4.293   3.560   5.950  0.6185 -0.3720 -1.6645
 3068SOL    HW211199   4.146   3.563   5.915  0.0720  0.3217  0.5459
 3069SOL     OW11200   3.598   3.124   1.486 -0.3158 -0.1451  0.5542
 3069SOL    HW111201   3.528   3.061   1.502 -0.3068 -0.3079 -0.0413
 3069SOL    HW211202   3.596   3.182   1.562 -0.1445 -1.0244  1.2422
 3070SOL     OW11203   1.275   8.327   6.154 -0.8633  0.2930  0.8829
 3070SOL    HW111204   1.313   8.372   6.230 -1.6405  0.6038  1.0944
 3070SOL    HW211205   1.340   8.337   6.085  0.4720 -1.1501  1.8792
 3071SOL     OW11206   7.756   8.229   8.651  0.0491 -0.4065 -0.5668
 3071SOL    HW111207   7.807   8.233   8.571 -0.6041  1.9265 -0.9522
 3071SOL    HW211208   7.673   8.273   8.629 -0.9386 -1.4418  0.8564
 3072SOL     OW11209   1.889   0.884   5.735 -0.1393 -0.2631  0.6733
 3072SOL    HW111210   1.982   0.861   5.739 -0.6109 -2.2791  1.1101
 3072SOL    HW211211   1.852   0.849   5.816 -1.5096 -0.6886 -0.1054
 3073SOL     OW11212   1.796   1.825   7.443  0.1082  0.1069 -0.2293
 3073SOL    HW111213   1.765   1.910   7.472  0.6343  0.4225 -0.5809
 3073SOL    HW211214   1.791   1.829   7.347  0.4447 -0.1408 -0.2582
 3074SOL     OW11215   0.294   3.020   1.789  0.3674 -0.5612 -0.0974
 3074SOL    HW111216   0.210   2.993   1.752  0.1961  0.3601 -0.4144
 3074SOL    HW211217   0.328   3.084   1.726 -0.3062  1.6951  1.6885
 3075SOL     OW11218   2.606   1.768   3.036 -0.0632 -0.5454 -0.2394
 3075SOL    HW111219   2.536   1.820   3.076  0.7164 -0.9221  1.7643
 3075SOL    HW211220   2.564   1.722   2.964 -1.6197  0.0958  0.2150
 3076SOL     OW11221   5.909   6.023   3.077 -0.0843  0.3885 -0.1133
 3076SOL    HW111222   5.984   6.081   3.062  1.8177 -1.3131  2.0503
 3076SOL    HW211223   5.911   6.005   3.171 -2.8184 -0.3385 -0.1087
 3077SOL     OW11224   6.459   6.153   3.566 -0.5741 -0.0155  0.0524
 3077SOL    HW111225   6.474   6.184   3.477  0.1518  0.3675  0.3007
 3077SOL    HW211226   6.384   6.094   3.559 -0.5584  0.0606 -0.7980
 3078SOL     OW11227   8.519   1.973   6.397  0.1847 -0.4016  0.3508
 3078SOL    HW111228   8.551   2.051   6.441  0.9190 -1.6965  2.2448
 3078SOL    HW211229   8.586   1.953   6.331  0.2388  0.2633  0.1976
 3079SOL     OW11230   6.121   4.773   4.012  0.2195  0.0035 -0.1710
 3079SOL    HW111231   6.089   4.843   4.069  0.5019  0.0806 -0.1010
 3079SOL    HW211232   6.061   4.772   3.938 -0.3793 -0.3528  0.3090
 3080SOL     OW11233   0.511   6.573   0.427 -0.0805  0.7084 -0.3324
 3080SOL    HW111234   0.484   6.500   0.483  0.2403  1.2571  0.5513
 3080SOL    HW211235   0.562   6.532   0.357 -0.6199 -0.0016 -0.3209
 3081SOL     OW11236   1.497   3.544   8.296  0.4763  0.3310 -0.3186
 3081SOL    HW111237   1.555   3.472   8.268 -1.4680 -1.5219  0.2067
 3081SOL    HW211238   1.464   3.580   8.214  2.2047  1.3578 -0.6290
 3082SOL     OW11239   6.687   6.207   4.628 -0.6003 -0.4596 -0.3725
 3082SOL    HW111240   6.770   6.242   4.596 -0.3958  0.0542  0.7072
 3082SOL    HW211241   6.621   6.248   4.572 -0.1990 -0.1780 -0.6462
 3083SOL     OW11242   3.819   4.783   8.495 -0.2207  0.1302 -0.2787
 3083SOL    HW111243   3.731   4.752   8.476  0.0079 -0.8533  0.1511
 3083SOL    HW211244   3.852   4.721   8.561  0.0259  1.7111  1.1399
 3084SOL     OW11245   5.146   2.966   4.237 -0.5320 -0.0910  0.2256
 3084SOL    HW111246   5.241   2.971   4.226 -0.5788  0.7650  0.1811
 3084SOL    HW211247   5.133   2.952   4.331 -0.3778  0.5929  0.3562
 3085SOL     OW11248   3.303   3.859   8.755 -0.5119  0.1568 -0.3258
 3085SOL    HW111249   3.233   3.892   8.700 -0.8346  0.0788  0.0356
 3085SOL    HW211250   3.383   3.879   8.707 -0.6378  2.0320  0.1590
 3086SOL     OW11251   5.453   6.292   3.855  0.1140 -0.0749 -0.5802
 3086SOL    HW111252   5.510   6.289   3.932 -0.7042 -0.9594  0.0157
 3086SOL    HW211253   5.513   6.284   3.781  0.8361 -0.1666 -0.0026
 3087SOL     OW11254   8.056   1.649   7.344 -0.7090 -0.0613  0.4269
 3087SOL    HW111255   8.085   1.564   7.312 -2.7471 -0.2615 -1.1240
 3087SOL    HW211256   8.030   1.697   7.265 -1.0075  1.4495  1.3866
 3088SOL     OW11257   5.773   7.352   2.543  0.3999  0.9995 -0.3725
 3088SOL    HW111258   5.791   7.305   2.461 -0.5006  0.9704 -0.5583
 3088SOL    HW211259   5.787   7.287   2.612 -1.3960  0.2673 -0.6571
 3089SOL     OW11260   5.397   2.903   3.903 -0.5396  0.0820  0.0621
 3089SOL    HW111261   5.449   2.876   3.828 -0.1777  0.4632  0.1713
 3089SOL    HW211262   5.405   2.999   3.905 -2.2643  0.2835 -0.6622
 3090SOL     OW11263   1.392   5.011   6.079  0.1694  0.1314  0.3820
 3090SOL    HW111264   1.311   5.018   6.028 -0.3730  0.4841  1.2543
 3090SOL    HW211265   1.461   5.001   6.014 -0.3854  1.5807 -0.4709
 3091SOL     OW11266   5.674   1.179   1.899  0.2500  0.7020  0.2522
 3091SOL    HW111267   5.594   1.224   1.871 -0.1603  0.1329  0.4824
 3091SOL    HW211268   5.649   1.136   1.982  0.9287  0.9095  0.5720
 3092SOL     OW11269   0.420   4.764   7.250  0.1931  0.1155 -0.6489
 3092SOL    HW111270   0.448   4.801   7.333  0.1472 -1.5812  0.1637
 3092SOL    HW211271   0.406   4.839   7.193  1.6315  1.2393  0.4286
 3093SOL     OW11272   1.899   3.150   7.273  0.0060 -0.0270 -0.5574
 3093SOL    HW111273   1.896   3.055   7.262 -0.1202 -0.1522  0.4066
 3093SOL    HW211274   1.943   3.163   7.357 -0.5550  0.7391 -0.3668
 3094SOL     OW11275   6.685   3.903   5.815 -0.3437  0.5845 -0.0432
 3094SOL    HW111276   6.623   3.966   5.779 -0.9339 -0.3177 -0.6370
 3094SOL    HW211277   6.682   3.829   5.754 -0.5712 -0.5308  1.2839
 3095SOL     OW11278   5.902   3.464   4.297  0.5987  0.0930  0.0369
 3095SOL    HW111279   5.839   3.415   4.244  0.7246  0.5996 -0.6046
 3095SOL    HW211280   5.856   3.545   4.319  1.0906  0.5538 -0.6044
 3096SOL     OW11281   2.846   2.587   7.880 -0.0943 -0.1375  0.0939
 3096SOL    HW111282   2.844   2.616   7.789  0.3147  3.0176  0.9649
 3096SOL    HW211283   2.881   2.498   7.876  2.3352  0.7627 -2.6640
 3097SOL     OW11284   8.546   5.776   0.477 -0.1767  0.2771 -0.5072
 3097SOL    HW111285   8.534   5.706   0.413 -1.6025 -2.0833  2.1216
 3097SOL    HW211286   8.625   5.751   0.525  0.1821  1.3620 -0.4948
 3098SOL     OW11287   2.305   5.772   2.282  1.0046 -0.3195  0.6905
 3098SOL    HW111288   2.363   5.724   2.341  1.8272 -0.0944  0.0809
 3098SOL    HW211289   2.315   5.864   2.309 -0.6194 -0.4568  1.9038
 3099SOL     OW11290   4.864   0.362   5.442  0.6268 -0.6416 -0.2821
 3099SOL    HW111291   4.946   0.402   5.471  0.8225 -0.1744 -1.4106
 3099SOL    HW211292   4.804   0.373   5.515  1.3527 -0.2943  0.2645
 3100SOL     OW11293   7.677   5.117   7.814  0.3051  0.0345 -0.3317
 3100SOL    HW111294   7.608   5.164   7.860  0.6586 -0.9899  1.3052
 3100SOL    HW211295   7.740   5.186   7.789 -0.3184  0.7128 -0.0617
 3101SOL     OW11296   0.961   6.758   1.485  0.3109  0.1783  0.4458
 3101SOL    HW111297   0.929   6.847   1.468  1.4646  0.2756 -1.5034
 3101SOL    HW211298   1.054   6.769   1.504  0.3619 -0.5764  0.6643
 3102SOL     OW11299   4.200   5.258   5.652  0.0551 -0.0832 -0.0297
 3102SOL    HW111300   4.212   5.352   5.670  0.5527 -0.0706 -0.4215
 3102SOL    HW211301   4.109   5.251   5.624 -0.3687  0.0937  1.2087
 3103SOL     OW11302   1.773   0.766   3.904 -0.6136 -0.0817  0.0391
 3103SOL    HW111303   1.736   0.855   3.897  0.3262  0.3795  0.7183
 3103SOL    HW211304   1.734   0.719   3.830 -0.1746  1.2594 -1.1124
 3104SOL     OW11305   1.781   8.421   5.088  0.2993  0.1620 -0.2808
 3104SOL    HW111306   1.812   8.395   5.175  0.7960 -1.2198 -0.8344
 3104SOL    HW211307   1.762   8.338   5.044  1.0759  0.7758 -1.8452
 3105SOL     OW11308   0.877   7.070   2.562 -0.0980 -0.2707 -0.4102
 3105SOL    HW111309   0.790   7.090   2.597  0.9626  0.7730  1.7830
 3105SOL    HW211310   0.916   7.009   2.625  1.4861  0.8297 -0.2688
 3106SOL     OW11311   2.387   7.328   8.430 -0.2256  0.4169  0.1790
 3106SOL    HW111312   2.403   7.287   8.345  1.8108  0.5389  0.4396
 3106SOL    HW211313   2.441   7.407   8.429 -0.0336  0.3473  1.6258
 3107SOL     OW11314   4.819   8.630   1.447 -0.5465 -0.3739  0.7327
 3107SOL    HW111315   4.854   8.709   1.488 -0.9685  0.4458 -0.4369
 3107SOL    HW211316   4.895   8.588   1.407 -0.2190 -0.9085  1.8564
 3108SOL     OW11317   4.961   4.793   7.579 -0.1242 -0.3061  0.3604
 3108SOL    HW111318   4.989   4.803   7.670  2.5187  2.5586 -0.5863
 3108SOL    HW211319   4.893   4.860   7.568  0.3791  0.1479 -0.0275
 3109SOL     OW11320   2.513   4.161   2.784  0.0080  0.3780  0.6888
 3109SOL    HW111321   2.443   4.199   2.731  0.3084  3.2487  2.1129
 3109SOL    HW211322   2.594   4.190   2.741  0.2535  1.2511  1.6920
 3110SOL     OW11323   4.166   4.390   6.918  0.2470 -0.3443  0.1379
 3110SOL    HW111324   4.185   4.466   6.973  0.5077  0.3197 -0.8456
 3110SOL    HW211325   4.079   4.362   6.946  0.0669  0.4338  0.3803
 3111SOL     OW11326   6.695   1.859   3.758 -0.8470 -0.1617  0.0049
 3111SOL    HW111327   6.661   1.938   3.799 -1.8214  1.1332 -3.0900
 3111SOL    HW211328   6.628   1.792   3.775 -1.4676  0.4736  0.0856
 3112SOL     OW11329   3.522   0.126   8.387 -0.4307 -0.6043 -0.2296
 3112SOL    HW111330   3.519   0.156   8.296 -4.2454 -2.6245 -0.9670
 3112SOL    HW211331   3.530   0.207   8.439  1.0353  0.6408 -2.2644
 3113SOL     OW11332   3.300   4.824   5.977 -0.5871  0.6638  0.2430
 3113SOL    HW111333   3.313   4.764   6.051  1.7633 -0.0068 -0.6299
 3113SOL    HW211334   3.274   4.768   5.905  3.1940  0.2672 -1.0205
 3114SOL     OW11335   4.811   2.013   4.597 -0.6145  0.1304 -0.3243
 3114SOL    HW111336   4.898   1.995   4.632 -0.4618  0.8627 -0.3071
 3114SOL    HW211337   4.754   1.949   4.639 -0.5637  1.4279  1.8132
 3115SOL     OW11338   3.312   0.003   5.687  0.1080 -0.3694  0.2412
 3115SOL    HW111339   3.390   0.056   5.669  1.7221 -2.3491  1.0236
 3115SOL    HW211340   3.280   0.035   5.771 -0.4657  1.0384 -0.4929
 3116SOL     OW11341   4.867   0.583   1.921 -0.2651  0.3264  0.0554
 3116SOL    HW111342   4.791   0.615   1.871 -0.2206  0.4711  0.0800
 3116SOL    HW211343   4.937   0.644   1.900  0.4390 -0.9730 -1.5887
 3117SOL     OW11344   4.404   2.289   4.874  0.5288 -0.2861 -0.8530
 3117SOL    HW111345   4.471   2.309   4.940 -0.2516  0.1242 -0.1630
 3117SOL    HW211346   4.409   2.194   4.863 -0.8996 -0.7350  1.6002
 3118SOL     OW11347   2.588   5.476   1.099  0.4226  0.5043  0.0813
 3118SOL    HW111348   2.566   5.439   1.184  0.6720 -0.0848 -0.1060
 3118SOL    HW211349   2.516   5.536   1.079 -1.1209 -1.4721 -0.5957
 3119SOL     OW11350   0.045   3.669   3.225  0.1572 -0.5782  0.6514
 3119SOL    HW111351   0.099   3.729   3.175 -0.8676 -0.2704 -0.1198
 3119SOL    HW211352   0.048   3.587   3.175 -0.4426 -0.4261  0.3597
 3120SOL     OW11353   5.248   4.684   0.236 -0.0714  0.0176  0.4583
 3120SOL    HW111354   5.298   4.698   0.316  1.2359  0.5367 -0.4108
 3120SOL    HW211355   5.157   4.706   0.260  0.2693  0.0208  1.8155
 3121SOL     OW11356   0.851   1.142   5.324  0.2813 -0.1207  0.1008
 3121SOL    HW111357   0.908   1.066   5.328  0.6323  0.1604  0.5818
 3121SOL    HW211358   0.765   1.107   5.299  0.3332 -0.7324  0.7569
 3122SOL     OW11359   2.897   3.807   6.691 -0.1422 -0.0653  0.0378
 3122SOL    HW111360   2.940   3.877   6.740  1.3851 -1.0527  0.1601
 3122SOL    HW211361   2.820   3.849   6.651  0.3337  1.4889  0.7025
 3123SOL     OW11362   0.535   8.605   1.122  0.5633 -0.4338 -0.2347
 3123SOL    HW111363   0.504   8.550   1.050  1.3186 -1.0275 -0.1255
 3123SOL    HW211364   0.467   8.598   1.189 -0.5698  0.8166 -1.2051
 3124SOL     OW11365   5.755   2.510   1.096  0.1210  0.1555 -0.1242
 3124SOL    HW111366   5.721   2.476   1.013  1.7025  1.1576 -1.2205
 3124SOL    HW211367   5.793   2.433   1.139  0.8377 -0.0735 -1.1362
 3125SOL     OW11368   4.724   7.127   4.946 -0.0212  0.5982  0.4422
 3125SOL    HW111369   4.808   7.168   4.922 -0.2811  0.1726 -1.3775
 3125SOL    HW211370   4.746   7.035   4.957 -0.3379  0.3834 -0.6434
 3126SOL     OW11371   5.266   5.008   6.026 -0.4483 -0.0377 -0.3302
 3126SOL    HW111372   5.309   5.093   6.011  0.5497 -0.0918  1.8666
 3126SOL    HW211373   5.198   5.026   6.091  0.9419 -1.1565  1.5366
 3127SOL     OW11374   6.236   4.351   7.992 -0.1280 -0.7499 -0.1640
 3127SOL    HW111375   6.275   4.270   8.027 -0.3794 -0.1846  1.4828
 3127SOL    HW211376   6.222   4.332   7.899  1.2553 -2.0465 -0.1522
 3128SOL     OW11377   5.252   6.682   2.213  0.8882  0.5751  0.5713
 3128SOL    HW111378   5.228   6.605   2.264 -1.0041  0.2612 -0.7172
 3128SOL    HW211379   5.330   6.655   2.163 -0.0631 -0.7061 -0.2619
 3129SOL     OW11380   0.068   7.039   1.217 -0.1952 -0.4367 -0.0943
 3129SOL    HW111381   0.003   7.085   1.164 -1.1088  1.0172  2.1145
 3129SOL    HW211382   0.024   6.960   1.246 -0.6246  0.0226  0.5327
 3130SOL     OW11383   0.909   6.624   6.081 -0.6469 -0.2078 -0.1252
 3130SOL    HW111384   0.864   6.558   6.133  0.5928 -1.3638 -0.4676
 3130SOL    HW211385   0.903   6.592   5.991 -0.4460  0.3980 -0.3591
 3131SOL     OW11386   4.584   8.066   7.738  0.1563  0.1257  0.0495
 3131SOL    HW111387   4.514   8.006   7.712 -0.3374  0.9512 -0.5457
 3131SOL    HW211388   4.613   8.032   7.823  0.1426 -1.1680 -0.4327
 3132SOL     OW11389   2.058   0.242   7.516 -0.3469  0.3936 -0.4475
 3132SOL    HW111390   1.978   0.249   7.568 -0.3566 -2.4787  0.0987
 3132SOL    HW211391   2.115   0.311   7.550 -2.0722  1.5861  0.1216
 3133SOL     OW11392   7.753   1.934   1.464  0.3874 -0.4018 -0.0173
 3133SOL    HW111393   7.684   1.995   1.488  0.3473 -0.2897 -0.4092
 3133SOL    HW211394   7.808   1.927   1.543 -0.3961 -0.9548  0.4984
 3134SOL     OW11395   6.637   5.078   2.417  0.1626  0.0666  0.5257
 3134SOL    HW111396   6.720   5.050   2.454  0.9444 -0.3909 -1.4260
 3134SOL    HW211397   6.652   5.167   2.386 -0.0368 -0.0499  0.0810
 3135SOL     OW11398   4.053   4.243   0.600  0.4930  0.4332 -0.4553
 3135SOL    HW111399   4.063   4.332   0.565 -2.5036  1.0780  0.0712
 3135SOL    HW211400   4.010   4.194   0.530  2.9861 -1.0032 -1.1300
 3136SOL     OW11401   3.404   7.315   3.574 -0.1163 -0.0528 -0.4860
 3136SOL    HW111402   3.345   7.241   3.562 -0.2938  0.1668 -1.0300
 3136SOL    HW211403   3.346   7.390   3.584  0.0656  0.0669 -0.3179
 3137SOL     OW11404   5.996   0.811   7.760  0.0255 -0.4942 -0.2422
 3137SOL    HW111405   6.066   0.847   7.705  0.2031  3.0615  2.0376
 3137SOL    HW211406   6.042   0.767   7.832 -0.0284  0.7922  0.6090
 3138SOL     OW11407   8.783   5.301   2.229  0.1686  0.5333  0.2800
 3138SOL    HW111408   8.727   5.378   2.232  1.0575  1.2157 -0.2116
 3138SOL    HW211409   8.737   5.240   2.172 -0.8209  0.4589  1.1241
 3139SOL     OW11410   6.386   8.394   3.494 -0.3264  0.2067  0.4923
 3139SOL    HW111411   6.416   8.457   3.428  0.4286 -1.0041 -0.3823
 3139SOL    HW211412   6.467   8.355   3.528 -0.7848 -0.6158  0.6671
 3140SOL     OW11413   1.394   8.274   1.305  0.5833 -1.0304  0.7898
 3140SOL    HW111414   1.465   8.287   1.368 -0.3122  1.0518  1.4785
 3140SOL    HW211415   1.432   8.299   1.221  1.1819 -1.7517  0.8365
 3141SOL     OW11416   4.569   7.093   6.728  0.0065  0.2258  0.2460
 3141SOL    HW111417   4.513   7.070   6.654  0.2114  1.5422 -0.3612
 3141SOL    HW211418   4.508   7.108   6.800 -0.1201 -2.2884  0.7458
 3142SOL     OW11419   1.605   1.929   8.589  0.0442 -0.0696  0.4318
 3142SOL    HW111420   1.576   1.880   8.513  0.8984  0.6846 -0.4033
 3142SOL    HW211421   1.526   1.940   8.642 -1.1874  1.5589 -1.5662
 3143SOL     OW11422   4.382   8.576   1.238  0.7330 -0.4546  0.3981
 3143SOL    HW111423   4.445   8.553   1.306  0.5680 -3.9475 -0.4028
 3143SOL    HW211424   4.317   8.505   1.240 -0.5434  0.5134 -1.8788
 3144SOL     OW11425   4.587   7.918   4.751  0.8601  0.8230  0.2090
 3144SOL    HW111426   4.509   7.960   4.714  0.5707  0.3761  0.3055
 3144SOL    HW211427   4.554   7.859   4.818  1.0224 -1.3421 -1.4905
 3145SOL     OW11428   1.508   0.372   5.476 -0.0383 -0.3754  0.2144
 3145SOL    HW111429   1.550   0.398   5.558  0.6632 -1.1744  0.1336
 3145SOL    HW211430   1.535   0.280   5.465 -1.5021 -0.7885 -0.0521
 3146SOL     OW11431   4.299   3.385   3.738  0.5101 -0.7495  0.3684
 3146SOL    HW111432   4.308   3.305   3.686  0.4651 -0.6353  0.1834
 3146SOL    HW211433   4.205   3.401   3.741  0.5812 -0.0839 -0.5517
 3147SOL     OW11434   4.651   2.522   6.217  0.1523  0.8737 -0.3022
 3147SOL    HW111435   4.617   2.573   6.290  1.4978  1.0189  0.2472
 3147SOL    HW211436   4.735   2.562   6.196  1.2458 -1.0853  0.1331
 3148SOL     OW11437   3.651   3.866   6.146 -0.4208 -0.1291  0.6617
 3148SOL    HW111438   3.626   3.906   6.063 -0.3851 -2.2973 -0.4756
 3148SOL    HW211439   3.586   3.797   6.160  0.0003 -0.2723  2.0735
 3149SOL     OW11440   4.660   8.114   3.925 -0.3713 -0.3330  0.1202
 3149SOL    HW111441   4.712   8.189   3.896  0.9546 -0.7964  1.1852
 3149SOL    HW211442   4.652   8.059   3.847  0.2763  0.0209 -0.2013
 3150SOL     OW11443   2.766   0.414   2.976 -0.4650  0.5226 -0.5061
 3150SOL    HW111444   2.746   0.322   2.996  0.5260  0.1043 -1.3885
 3150SOL    HW211445   2.703   0.464   3.029 -0.5511 -0.6406  0.5259
 3151SOL     OW11446   8.469   4.144   6.339 -0.2300  0.3778  0.2947
 3151SOL    HW111447   8.466   4.181   6.251  0.7178  0.4163  0.2675
 3151SOL    HW211448   8.562   4.132   6.357 -0.3690  1.0490  1.5747
 3152SOL     OW11449   2.226   2.355   8.333  0.3067  0.2924  0.1684
 3152SOL    HW111450   2.308   2.309   8.351 -0.2362 -0.1712  1.6731
 3152SOL    HW211451   2.160   2.286   8.331 -0.3212  0.8475  1.0478
 3153SOL     OW11452   5.596   0.532   0.985  0.3290  0.4108  0.2046
 3153SOL    HW111453   5.670   0.557   0.930 -0.3032 -0.4089 -1.0852
 3153SOL    HW211454   5.521   0.535   0.925 -0.5416  0.3849  1.2706
 3154SOL     OW11455   4.405   2.507   0.574  0.2455 -0.3664  0.3475
 3154SOL    HW111456   4.456   2.444   0.522  1.6524 -0.1744  1.4501
 3154SOL    HW211457   4.372   2.456   0.647 -0.7882 -0.3749 -0.1020
 3155SOL     OW11458   5.363   7.822   6.548  0.0830 -0.2723  0.1262
 3155SOL    HW111459   5.452   7.856   6.552 -0.0091  0.3023 -1.7759
 3155SOL    HW211460   5.318   7.881   6.488 -1.2718 -1.2429  0.1494
 3156SOL     OW11461   6.400   0.286   7.117 -0.2634 -0.4524 -0.0177
 3156SOL    HW111462   6.324   0.343   7.102 -0.6857 -1.1036 -0.4142
 3156SOL    HW211463   6.442   0.280   7.031 -0.8935 -1.6670 -0.2662
 3157SOL     OW11464   6.151   0.955   0.735  0.4341  0.0653 -0.1593
 3157SOL    HW111465   6.214   0.933   0.666 -0.1358  0.7634 -0.9309
 3157SOL    HW211466   6.091   0.881   0.737  1.0479 -0.4341  0.3233
 3158SOL     OW11467   2.598   3.105   0.023 -0.3422 -0.2288  0.3821
 3158SOL    HW111468   2.648   3.142   0.095 -0.7651 -1.4866  1.3748
 3158SOL    HW211469   2.664   3.075  -0.040  0.0282  0.8713  0.2280
 3159SOL     OW11470   4.786   1.648   5.851 -0.6125  0.6381 -0.5457
 3159SOL    HW111471   4.859   1.689   5.804 -0.0820 -1.8722 -2.1387
 3159SOL    HW211472   4.757   1.578   5.793 -4.1128  1.2726  0.1964
 3160SOL     OW11473   2.433   3.870   2.340  0.3946  0.9206 -0.1758
 3160SOL    HW111474   2.370   3.936   2.367  0.1375  0.9065 -0.7472
 3160SOL    HW211475   2.470   3.838   2.423  1.5140  2.7173  0.0836
 3161SOL     OW11476   6.297   1.176   8.450  0.1083 -0.0121  0.1710
 3161SOL    HW111477   6.282   1.245   8.515  0.3710  0.0249  0.1932
 3161SOL    HW211478   6.211   1.134   8.440 -0.0793  0.3894  0.0729
 3162SOL     OW11479   1.601   6.992   4.969  0.1516 -0.2227  0.1119
 3162SOL    HW111480   1.557   6.989   4.885 -0.2703  1.1156  0.2587
 3162SOL    HW211481   1.648   7.075   4.968 -1.2388  0.6513  1.8420
 3163SOL     OW11482   0.686   8.855   4.765  0.2865  0.5558  0.1789
 3163SOL    HW111483   0.605   8.906   4.762 -0.0010  0.2172  1.5166
 3163SOL    HW211484   0.700   8.827   4.675 -2.8349 -2.0582  0.3242
 3164SOL     OW11485   1.991   8.094   0.470 -0.1370  0.0099 -0.2073
 3164SOL    HW111486   2.081   8.105   0.436 -0.8800  0.6946 -2.1172
 3164SOL    HW211487   1.962   8.011   0.433 -0.8173  0.5548 -0.9257
 3165SOL     OW11488   1.695   4.723   3.269  0.0429 -0.0195 -0.9982
 3165SOL    HW111489   1.615   4.773   3.287 -0.3990 -1.1235  0.2099
 3165SOL    HW211490   1.694   4.711   3.174 -2.7949 -2.4407 -0.8322
 3166SOL     OW11491   6.656   6.396   2.901  0.5690 -0.0062  0.8419
 3166SOL    HW111492   6.614   6.312   2.884 -1.0664  0.6443  1.4425
 3166SOL    HW211493   6.699   6.418   2.818 -0.6524 -0.5263  0.0372
 3167SOL     OW11494   5.331   0.420   7.752  0.6128  0.0753 -0.5612
 3167SOL    HW111495   5.386   0.438   7.676  1.6577 -0.6743 -0.0166
 3167SOL    HW211496   5.391   0.380   7.816 -0.4064 -0.0521  0.3518
 3168SOL     OW11497   3.803   7.119   6.181  0.0486 -0.5046  0.3411
 3168SOL    HW111498   3.873   7.055   6.191 -0.1362 -0.6128  1.0257
 3168SOL    HW211499   3.730   7.071   6.142  0.7659 -0.0931 -1.6026
 3169SOL     OW11500   7.020   5.709   5.563 -0.2838 -0.6298 -0.2340
 3169SOL    HW111501   7.004   5.704   5.469 -1.1811  1.6283 -0.2739
 3169SOL    HW211502   7.094   5.769   5.572 -0.5580 -0.3907  0.5154
 3170SOL     OW11503   0.874   6.093   0.050 -0.2947  0.1291  0.0553
 3170SOL    HW111504   0.924   6.136  -0.020 -0.6539 -0.4992 -0.6063
 3170SOL    HW211505   0.929   6.102   0.128  0.6466 -0.1436 -0.5569
 3171SOL     OW11506   1.931   6.794   3.155  0.0222  0.5794 -0.3830
 3171SOL    HW111507   1.867   6.783   3.085  0.7693  0.8046 -1.1166
 3171SOL    HW211508   2.008   6.746   3.125 -0.4946 -1.5745  1.4701
 3172SOL     OW11509   0.599   5.632   2.163  1.0734 -0.1167  0.0750
 3172SOL    HW111510   0.553   5.642   2.080  0.7064 -2.6821 -0.1137
 3172SOL    HW211511   0.685   5.671   2.147  0.8258 -0.0674 -1.3148
 3173SOL     OW11512   1.334   0.791   0.014 -0.1276  1.2375 -0.7912
 3173SOL    HW111513   1.293   0.876   0.028 -1.2487  0.8478 -1.5182
 3173SOL    HW211514   1.269   0.728   0.047  0.6825  0.6496 -0.2656
 3174SOL     OW11515   1.344   1.582   5.776  0.6572  0.1803 -0.4190
 3174SOL    HW111516   1.426   1.627   5.796  0.5317 -0.3553  1.4730
 3174SOL    HW211517   1.281   1.653   5.763  1.1045  0.5802 -0.4596
 3175SOL     OW11518   7.028   4.191   6.253  0.2384  0.9299  0.2918
 3175SOL    HW111519   7.087   4.205   6.179  0.2118  1.3805  0.3531
 3175SOL    HW211520   6.954   4.143   6.216  1.3864 -1.1512  0.5383
 3176SOL     OW11521   4.315   1.830   7.897  0.0636  0.2061  0.7491
 3176SOL    HW111522   4.348   1.800   7.812  1.4013  1.2746  0.8510
 3176SOL    HW211523   4.239   1.774   7.915  0.9427 -1.3711 -0.2107
 3177SOL     OW11524   2.429   3.313   7.783  0.1925 -0.0416  0.3320
 3177SOL    HW111525   2.434   3.394   7.732 -0.6401 -0.0631  0.2021
 3177SOL    HW211526   2.464   3.337   7.869  0.7528  0.2302  0.0340
 3178SOL     OW11527   1.763   2.866   6.688  0.0539  0.2966 -0.0914
 3178SOL    HW111528   1.858   2.865   6.694 -0.0241 -0.0278  1.8624
 3178SOL    HW211529   1.744   2.826   6.604  1.6362 -1.0092  0.1204
 3179SOL     OW11530   1.041   6.848   3.550  0.1100 -0.3090 -0.1198
 3179SOL    HW111531   1.055   6.754   3.535 -0.6145 -0.1823 -1.7671
 3179SOL    HW211532   1.128   6.881   3.577  0.7443 -1.1702 -1.0576
 3180SOL     OW11533   3.811   7.526   6.539 -0.7305  0.7556  0.4777
 3180SOL    HW111534   3.800   7.540   6.633 -0.7453  0.0233  0.5871
 3180SOL    HW211535   3.724   7.502   6.508 -0.7005  0.8809  0.2979
 3181SOL     OW11536   8.121   8.872   1.842 -0.0059  0.0916  0.1159
 3181SOL    HW111537   8.026   8.868   1.852  0.0178  0.6385  0.6445
 3181SOL    HW211538   8.152   8.784   1.861 -0.3614  0.0420  0.4561
 3182SOL     OW11539   8.210   3.870   3.548 -0.5329  0.5587 -0.5422
 3182SOL    HW111540   8.261   3.792   3.570 -0.0940  0.5277 -1.5935
 3182SOL    HW211541   8.179   3.903   3.632 -0.1332 -0.3440 -0.0193
 3183SOL     OW11542   1.567   8.765   0.850  0.1467 -0.3618  0.2467
 3183SOL    HW111543   1.579   8.854   0.818  1.9512 -0.0700  1.6090
 3183SOL    HW211544   1.486   8.768   0.901  0.2277  0.4928  0.3296
 3184SOL     OW11545   1.111   5.211   6.103 -0.0084 -0.0833  0.3453
 3184SOL    HW111546   1.126   5.126   6.062 -2.2202 -0.8763  1.0388
 3184SOL    HW211547   1.018   5.229   6.089  0.2009  1.8163  1.0095
 3185SOL     OW11548   8.230   6.992   6.746 -0.7238  0.0764 -0.1420
 3185SOL    HW111549   8.192   7.057   6.687 -0.5997 -0.4416 -0.8093
 3185SOL    HW211550   8.160   6.928   6.760 -1.1830  0.8517  1.3229
 3186SOL     OW11551   3.769   2.739   2.073 -0.4590  0.4309  0.7955
 3186SOL    HW111552   3.674   2.727   2.075 -0.8271  2.8927  0.4421
 3186SOL    HW211553   3.798   2.712   2.161 -1.2012 -1.8923  0.4000
 3187SOL     OW11554   2.239   7.184   0.533 -0.6786 -0.0076 -0.1784
 3187SOL    HW111555   2.313   7.158   0.587 -1.4076 -1.0967  0.3195
 3187SOL    HW211556   2.259   7.274   0.507  0.8874 -0.3399 -0.1926
 3188SOL     OW11557   2.151   8.369   6.774  0.5375  0.0452 -0.0915
 3188SOL    HW111558   2.117   8.334   6.856  0.7436  0.6770  0.2650
 3188SOL    HW211559   2.074   8.374   6.716  0.6504 -1.9000 -0.4960
 3189SOL     OW11560   1.441   8.729   1.915  0.1411  0.1505 -0.5234
 3189SOL    HW111561   1.372   8.665   1.897  0.1916  0.1526 -0.7250
 3189SOL    HW211562   1.395   8.812   1.926  0.1274  0.1927 -0.8712
 3190SOL     OW11563   4.431   0.075   7.699 -0.0470  0.0848 -0.2547
 3190SOL    HW111564   4.386   0.016   7.638 -0.1434  1.5843 -1.6993
 3190SOL    HW211565   4.399   0.049   7.786 -0.6174 -1.4943 -0.9074
 3191SOL     OW11566   0.798   3.052   0.394 -0.1042  0.2440  0.3286
 3191SOL    HW111567   0.833   3.030   0.480  1.3499 -0.1530 -0.3213
 3191SOL    HW211568   0.853   3.003   0.333 -0.8819  0.7872 -0.8462
 3192SOL     OW11569   0.654   5.103   7.201  0.6680  0.1125  0.2892
 3192SOL    HW111570   0.572   5.072   7.163  1.6749  0.1456 -2.0754
 3192SOL    HW211571   0.651   5.198   7.190  0.9892  0.1221  0.2562
 3193SOL     OW11572   1.938   0.909   3.085  0.3650 -0.9166  0.3554
 3193SOL    HW111573   1.986   0.924   3.166  1.0965 -0.1682 -0.1927
 3193SOL    HW211574   1.998   0.938   3.016 -1.0353  0.4964 -0.3409
 3194SOL     OW11575   0.876   1.559   8.823 -0.1314  0.1833 -0.6438
 3194SOL    HW111576   0.894   1.488   8.884  1.3450 -0.8511 -2.2076
 3194SOL    HW211577   0.942   1.625   8.842  0.4945 -0.2518 -1.2594
 3195SOL     OW11578   5.751   3.994   4.053  0.3302  1.0698 -0.3319
 3195SOL    HW111579   5.758   3.981   3.959 -3.4435  1.8720 -0.8786
 3195SOL    HW211580   5.703   3.917   4.085  3.2937 -0.2278  1.4077
 3196SOL     OW11581   7.999   8.713   0.018 -0.0141  0.0244  0.0850
 3196SOL    HW111582   7.978   8.625  -0.015  0.4403  0.0306 -0.2308
 3196SOL    HW211583   7.924   8.766  -0.007  1.2681  0.5872 -3.1465
 3197SOL     OW11584   1.116   4.713   2.307 -0.2940  0.6210 -0.0959
 3197SOL    HW111585   1.210   4.724   2.317  0.0326 -1.6712 -0.0347
 3197SOL    HW211586   1.107   4.638   2.249 -2.0922  0.7211 -0.0012
 3198SOL     OW11587   7.409   3.273   1.866  0.4406 -0.4733 -0.0451
 3198SOL    HW111588   7.445   3.213   1.801  0.4997  0.2206 -0.6513
 3198SOL    HW211589   7.388   3.216   1.941 -0.6068 -1.4493 -1.0430
 3199SOL     OW11590   2.050   5.097   5.168 -0.2010  0.3820 -0.1935
 3199SOL    HW111591   2.119   5.141   5.218  1.1931 -2.2778  0.3891
 3199SOL    HW211592   1.968   5.128   5.208  0.7780  0.7406  1.6406
 3200SOL     OW11593   6.772   1.540   4.608  0.1138  0.1827 -0.1120
 3200SOL    HW111594   6.847   1.487   4.636 -0.9784 -1.0155  0.6619
 3200SOL    HW211595   6.810   1.625   4.584  1.6687 -0.2872  0.5704
 3201SOL     OW11596   3.611   3.275   0.312  0.2885  0.4727 -0.3649
 3201SOL    HW111597   3.687   3.219   0.325  1.9057  2.8990  1.3836
 3201SOL    HW211598   3.538   3.225   0.350  0.9658 -1.7755 -1.8193
 3202SOL     OW11599   6.520   4.650   1.270 -0.0445  0.0492 -0.5519
 3202SOL    HW111600   6.477   4.577   1.313 -1.7221  0.2464 -1.8198
 3202SOL    HW211601   6.597   4.611   1.228  1.4803 -0.1990  2.2399
 3203SOL     OW11602   5.382   0.152   2.531  0.9124  0.0704  0.4259
 3203SOL    HW111603   5.453   0.214   2.516  0.6679  0.2053 -0.2182
 3203SOL    HW211604   5.308   0.189   2.484  1.2313 -1.5828 -1.5343
 3204SOL     OW11605   2.371   0.446   0.423 -0.1295 -0.4164 -0.3136
 3204SOL    HW111606   2.331   0.498   0.353  1.8685  0.0862 -1.1526
 3204SOL    HW211607   2.394   0.510   0.491  0.4498 -0.4798 -0.4392
 3205SOL     OW11608   8.077   6.083   7.831 -0.1201  0.2827  0.0292
 3205SOL    HW111609   8.138   6.149   7.795  0.5914 -0.2284  0.2685
 3205SOL    HW211610   8.082   6.096   7.926  2.0060 -1.7499  0.2892
 3206SOL     OW11611   0.252   2.136   2.074 -0.5583 -0.0685 -0.0813
 3206SOL    HW111612   0.282   2.053   2.036 -1.7730  0.3835 -2.2166
 3206SOL    HW211613   0.183   2.110   2.136  0.7873 -0.7708  1.1800
 3207SOL     OW11614   0.620   8.042   2.274  0.0538  0.1971  0.0379
 3207SOL    HW111615   0.640   8.016   2.363 -1.4026  1.7610  0.8911
 3207SOL    HW211616   0.684   8.109   2.253  1.4119 -1.2836 -0.7428
 3208SOL     OW11617   8.101   1.435   3.895  0.0519 -0.0777 -0.0265
 3208SOL    HW111618   8.072   1.427   3.986  0.1817  0.4701  0.0685
 3208SOL    HW211619   8.020   1.440   3.844 -0.0409 -1.4880 -0.0637
 3209SOL     OW11620   1.432   2.181   8.828 -0.4550 -0.1248 -0.3520
 3209SOL    HW111621   1.368   2.113   8.846 -0.5662 -0.2333 -1.1495
 3209SOL    HW211622   1.386   2.245   8.773 -0.1810  0.3053 -0.0963
 3210SOL     OW11623   2.774   1.108   8.541  0.6146 -0.8663 -0.0390
 3210SOL    HW111624   2.764   1.161   8.462 -0.7282 -0.3389  0.4499
 3210SOL    HW211625   2.786   1.018   8.508 -1.7918 -0.9630 -0.8913
 3211SOL     OW11626   8.349   7.544   3.158  0.4954  0.4995  0.2195
 3211SOL    HW111627   8.297   7.498   3.092 -1.2361  1.9750  0.4842
 3211SOL    HW211628   8.332   7.497   3.239  2.7236 -1.3939 -0.3057
 3212SOL     OW11629   8.684   7.929   1.458 -0.0921  0.0290 -0.1825
 3212SOL    HW111630   8.731   8.007   1.429 -0.6778  0.9787  1.2694
 3212SOL    HW211631   8.608   7.923   1.401  0.4442 -0.0301 -0.8985
 3213SOL     OW11632   6.248   6.351   0.647 -0.0811 -0.0054  0.1403
 3213SOL    HW111633   6.283   6.274   0.603 -0.0500 -0.5523  1.1026
 3213SOL    HW211634   6.201   6.399   0.578 -0.2689 -0.9802 -0.4230
 3214SOL     OW11635   2.266   5.962   6.347  0.1855  0.4970  0.4479
 3214SOL    HW111636   2.232   5.984   6.260 -2.1469 -0.8417  0.9261
 3214SOL    HW211637   2.203   6.001   6.408 -0.5026 -1.9134  1.4000
 3215SOL     OW11638   5.547   3.313   3.857  0.4770  0.2010  0.2039
 3215SOL    HW111639   5.576   3.222   3.866 -0.0242  0.1242  1.0852
 3215SOL    HW211640   5.474   3.309   3.796  0.8041  0.0889 -0.1861
 3216SOL     OW11641   5.304   6.127   6.171 -0.1533 -0.5025  0.1341
 3216SOL    HW111642   5.355   6.197   6.131 -2.4164  1.6740  0.7830
 3216SOL    HW211643   5.281   6.161   6.258 -1.9864 -1.6786  0.1742
 3217SOL     OW11644   8.104   6.499   0.669 -0.5539 -0.4420  0.0723
 3217SOL    HW111645   8.083   6.453   0.588 -0.4456  0.8817 -0.7260
 3217SOL    HW211646   8.022   6.496   0.720 -1.7431  1.7151 -1.5694
 3218SOL     OW11647   5.870   8.394   5.027  0.3118  0.3958  0.1825
 3218SOL    HW111648   5.836   8.319   4.977 -0.3607  1.5842 -1.2211
 3218SOL    HW211649   5.818   8.394   5.108  0.8269 -1.0598  0.5507
 3219SOL     OW11650   8.434   4.336   5.273 -0.0273  0.3361 -0.2274
 3219SOL    HW111651   8.473   4.270   5.332  0.7752  0.5444 -0.5078
 3219SOL    HW211652   8.437   4.417   5.323  1.1330  0.6217 -0.7102
 3220SOL     OW11653   4.783   0.820   4.831  0.1029  0.1191 -0.3716
 3220SOL    HW111654   4.691   0.832   4.853  0.3318  1.1966  0.0760
 3220SOL    HW211655   4.789   0.844   4.739  0.0777  0.8964 -0.1774
 3221SOL     OW11656   5.648   5.063   5.735  0.3471  0.1074  0.0876
 3221SOL    HW111657   5.662   5.094   5.825 -0.8734  1.2926 -0.1088
 3221SOL    HW211658   5.732   5.023   5.711  0.7616 -0.0558  1.6757
 3222SOL     OW11659   7.096   0.433   2.229 -0.4369  0.7116 -0.4349
 3222SOL    HW111660   7.142   0.506   2.271 -2.2910  0.3949  2.4022
 3222SOL    HW211661   7.142   0.355   2.259  0.5447  0.5867 -2.1587
 3223SOL     OW11662   7.683   4.938   2.888 -0.5353  0.2050 -0.2076
 3223SOL    HW111663   7.766   4.906   2.924 -1.3702 -0.2110  1.4911
 3223SOL    HW211664   7.618   4.877   2.924 -1.5606  0.4081 -1.6658
 3224SOL     OW11665   2.673   1.792   3.740 -0.7516  0.0709  0.5292
 3224SOL    HW111666   2.605   1.793   3.673 -1.7253  1.1987  1.4733
 3224SOL    HW211667   2.699   1.700   3.747 -0.9693 -0.1361 -1.0170
 3225SOL     OW11668   0.160   6.437   2.500 -0.0523  0.0956 -0.8826
 3225SOL    HW111669   0.208   6.389   2.432 -0.6768  0.4419 -1.5837
 3225SOL    HW211670   0.219   6.438   2.575  0.3487 -0.9542 -1.1657
 3226SOL     OW11671   7.085   8.164   4.017  0.8055  0.2362 -0.3410
 3226SOL    HW111672   7.154   8.230   4.018  0.3393  0.7257  0.2074
 3226SOL    HW211673   7.048   8.168   3.929  1.6309 -0.2051 -0.7170
 3227SOL     OW11674   0.171   2.029   4.975  0.0028 -0.0079 -0.2604
 3227SOL    HW111675   0.227   1.987   4.909  1.4060  0.3369  0.6814
 3227SOL    HW211676   0.092   2.053   4.926 -0.3071 -2.4916 -1.1418
 3228SOL     OW11677   0.172   3.815   5.093  0.3849 -0.3686  0.0469
 3228SOL    HW111678   0.095   3.835   5.146  0.9731  0.9033  0.4752
 3228SOL    HW211679   0.138   3.766   5.018 -0.8593  0.3103  0.1389
 3229SOL     OW11680   3.775   3.037   1.091 -0.2756 -0.1462 -0.2627
 3229SOL    HW111681   3.858   3.065   1.052 -0.7569  0.8327 -0.6213
 3229SOL    HW211682   3.776   3.076   1.178  0.2216 -1.2629  0.2626
 3230SOL     OW11683   3.115   4.439   5.748 -0.3311  0.0572 -0.1142
 3230SOL    HW111684   3.101   4.405   5.659  0.3171  0.0713 -0.2254
 3230SOL    HW211685   3.044   4.400   5.800  0.2514 -1.3100 -0.2809
 3231SOL     OW11686   7.001   0.163   1.305  0.0127 -0.0833  0.1694
 3231SOL    HW111687   6.954   0.108   1.367 -2.4546  0.8754 -0.7221
 3231SOL    HW211688   6.949   0.157   1.224  1.4382  1.0670 -0.8768
 3232SOL     OW11689   4.744   7.998   5.548  0.5336  0.1223 -0.0015
 3232SOL    HW111690   4.762   8.088   5.574  1.2593 -0.3736  1.2867
 3232SOL    HW211691   4.654   7.983   5.574 -0.0768  0.9019 -1.5287
 3233SOL     OW11692   3.672   7.923   8.483  0.2275 -0.2176 -0.5642
 3233SOL    HW111693   3.606   7.856   8.464  1.5074 -1.5056 -0.6841
 3233SOL    HW211694   3.752   7.873   8.500  0.4999  1.1044  2.7923
 3234SOL     OW11695   0.368   6.011   0.125  0.0315 -0.0673  0.2064
 3234SOL    HW111696   0.448   6.053   0.095 -0.3106  0.3744 -0.1146
 3234SOL    HW211697   0.372   6.016   0.221  0.3245  0.0689  0.1858
 3235SOL     OW11698   4.539   3.809   4.315 -0.9311  0.3558 -0.3991
 3235SOL    HW111699   4.555   3.760   4.234 -1.8501 -0.1490 -0.2917
 3235SOL    HW211700   4.489   3.886   4.287  0.0892  1.0040 -0.5017
 3236SOL     OW11701   7.584   7.956   7.328 -0.1123 -0.0576 -0.1611
 3236SOL    HW111702   7.646   7.893   7.367 -0.8407 -0.4744  0.3462
 3236SOL    HW211703   7.521   7.902   7.281 -1.7382  0.1318  1.6831
 3237SOL     OW11704   5.495   4.204   2.334  0.3270  0.2978 -0.1851
 3237SOL    HW111705   5.537   4.262   2.397 -0.2483  0.1990  0.2991
 3237SOL    HW211706   5.506   4.116   2.371 -0.4531  0.2901  0.0338
 3238SOL     OW11707   7.762   4.951   8.325  0.5147  0.2576  0.4715
 3238SOL    HW111708   7.797   5.010   8.258  0.7721 -0.3275  0.0845
 3238SOL    HW211709   7.683   4.915   8.286  0.3590  0.3377  0.7074
 3239SOL     OW11710   1.783   5.990   6.294 -0.2030  0.2740  0.0593
 3239SOL    HW111711   1.707   6.046   6.279 -0.1901  0.0997 -0.7327
 3239SOL    HW211712   1.802   5.952   6.208  2.1749  2.0815 -0.3229
 3240SOL     OW11713   1.673   4.764   6.177 -0.1324 -0.3612 -0.0144
 3240SOL    HW111714   1.596   4.768   6.233 -0.6468  1.4680 -0.7593
 3240SOL    HW211715   1.746   4.788   6.234 -0.4975  0.4202  0.1420
 3241SOL     OW11716   5.956   1.215   2.736  0.3814 -0.1239 -0.3201
 3241SOL    HW111717   5.900   1.188   2.663  0.1458 -0.7152  0.0732
 3241SOL    HW211718   6.045   1.210   2.701  0.1993  1.2265 -1.0867
 3242SOL     OW11719   5.075   8.060   1.466 -0.2484 -1.1884 -0.2236
 3242SOL    HW111720   5.123   8.142   1.461 -1.6943 -0.3687 -1.8063
 3242SOL    HW211721   5.113   8.014   1.541  1.1487  0.5435  0.1973
 3243SOL     OW11722   6.085   8.405   4.880  0.4357  0.1447 -0.3163
 3243SOL    HW111723   6.057   8.445   4.797  0.0890 -0.4356 -0.4804
 3243SOL    HW211724   6.015   8.426   4.942  0.1180 -0.4507 -0.4736
 3244SOL     OW11725   0.680   0.967   4.663  0.3630  0.3991  0.0519
 3244SOL    HW111726   0.747   0.921   4.714  1.4819  2.1075  0.2012
 3244SOL    HW211727   0.635   1.023   4.728  1.0740  1.7777 -0.6035
 3245SOL     OW11728   0.677   2.780   1.300  1.0471 -0.5335  0.1151
 3245SOL    HW111729   0.649   2.833   1.225 -0.6375 -0.4366  0.7597
 3245SOL    HW211730   0.661   2.690   1.274 -0.6189 -0.4512  0.7125
 3246SOL     OW11731   6.150   2.724   4.456 -0.4523  0.1281 -1.1876
 3246SOL    HW111732   6.141   2.656   4.523  1.6249 -0.3655 -1.3500
 3246SOL    HW211733   6.086   2.700   4.389  1.3738 -2.7466 -2.0683
 3247SOL     OW11734   7.981   5.782   1.645 -0.2323 -0.0121 -0.1234
 3247SOL    HW111735   7.937   5.816   1.567  0.7095 -1.2430 -1.2398
 3247SOL    HW211736   8.070   5.818   1.641 -0.4994  0.8479  1.0374
 3248SOL     OW11737   8.505   0.319   6.328 -0.8110 -0.3713 -0.6494
 3248SOL    HW111738   8.418   0.318   6.287 -1.6963  2.4246  0.8564
 3248SOL    HW211739   8.512   0.407   6.366  1.9372 -1.1509  0.9227
 3249SOL     OW11740   1.739   8.193   0.371 -0.3103 -0.2098 -0.2191
 3249SOL    HW111741   1.774   8.275   0.336 -2.0786  0.9412  0.5367
 3249SOL    HW211742   1.816   8.146   0.403  0.7926  0.9883 -0.9732
 3250SOL     OW11743   5.133   2.143   0.676  0.0233 -0.1450 -0.2474
 3250SOL    HW111744   5.200   2.211   0.679  0.7821 -0.8722 -0.4197
 3250SOL    HW211745   5.182   2.062   0.665 -0.9059 -0.6602 -0.6695
 3251SOL     OW11746   6.708   1.876   8.056  0.2241 -0.2121 -0.0714
 3251SOL    HW111747   6.683   1.786   8.076 -0.3722  0.2135  1.2157
 3251SOL    HW211748   6.799   1.883   8.085  1.1589 -1.0794 -2.5322
 3252SOL     OW11749   6.116   3.963   3.931  0.0725 -0.5112  0.0525
 3252SOL    HW111750   6.084   3.938   3.844  0.4527  0.1979 -0.2985
 3252SOL    HW211751   6.185   4.027   3.914 -1.0825  1.0132  0.9278
 3253SOL     OW11752   1.861   2.091   2.313 -0.9964 -0.1947  0.2644
 3253SOL    HW111753   1.799   2.148   2.360  1.0543  0.8021  1.8919
 3253SOL    HW211754   1.858   2.008   2.360  1.0549  0.8003  2.3115
 3254SOL     OW11755   0.282   0.065   8.679 -0.1304  0.0231  0.5785
 3254SOL    HW111756   0.208   0.023   8.723 -0.0236  0.3977  1.1172
 3254SOL    HW211757   0.358   0.042   8.732 -0.2743  2.2608  1.8664
 3255SOL     OW11758   5.408   3.652   1.541 -0.2466  0.0722  0.3247
 3255SOL    HW111759   5.428   3.710   1.614 -0.4570  1.2334 -0.5115
 3255SOL    HW211760   5.444   3.567   1.567  0.9117  0.7944  1.1780
 3256SOL     OW11761   8.546   4.295   0.774  0.2000 -0.1839 -0.0604
 3256SOL    HW111762   8.626   4.315   0.726 -0.5006  1.0548 -0.7638
 3256SOL    HW211763   8.498   4.236   0.715 -0.4244  0.9197 -0.6889
 3257SOL     OW11764   1.628   8.126   8.267 -0.1291  0.0738 -0.8685
 3257SOL    HW111765   1.636   8.111   8.361  0.4099 -0.4887 -0.9963
 3257SOL    HW211766   1.549   8.077   8.241  0.2753 -0.5962 -0.8694
 3258SOL     OW11767   5.190   3.195   3.961  0.8014 -0.6907  0.7741
 3258SOL    HW111768   5.128   3.130   3.994 -1.1920 -0.1382 -1.6433
 3258SOL    HW211769   5.208   3.251   4.037  0.0648 -2.1428  2.0749
 3259SOL     OW11770   0.079   5.096   0.711 -0.0533  0.1031 -0.2104
 3259SOL    HW111771   0.008   5.078   0.650 -1.1297  1.3790  0.6047
 3259SOL    HW211772   0.104   5.187   0.693  0.6199  0.0257  0.2736
 3260SOL     OW11773   0.996   1.158   5.591 -0.0217 -0.3572 -0.0587
 3260SOL    HW111774   1.041   1.242   5.598  0.1173 -0.3826 -0.5630
 3260SOL    HW211775   0.954   1.161   5.505 -0.6823 -0.4820  0.2568
 3261SOL     OW11776   7.489   3.812   8.274  0.2985  0.2334  0.7064
 3261SOL    HW111777   7.497   3.903   8.244 -0.1082  0.1387  0.3059
 3261SOL    HW211778   7.533   3.812   8.359 -1.3946  1.2719  1.6395
 3262SOL     OW11779   5.070   0.358   3.295  0.3957  0.0686  0.4676
 3262SOL    HW111780   5.151   0.310   3.309  0.5619  0.3536  0.4887
 3262SOL    HW211781   5.087   0.414   3.220 -0.2933 -0.9926 -0.5050
 3263SOL     OW11782   7.591   4.753   8.197 -0.3652 -0.0251 -0.0443
 3263SOL    HW111783   7.607   4.664   8.228 -0.7228 -0.4186 -0.9708
 3263SOL    HW211784   7.638   4.759   8.114  0.6617  1.0518  0.5714
 3264SOL     OW11785   4.734   6.038   2.411 -0.2857 -0.2036  0.4459
 3264SOL    HW111786   4.700   5.997   2.331  0.2916  0.2899 -0.0546
 3264SOL    HW211787   4.736   5.967   2.475 -0.4340 -0.6775 -0.0689
 3265SOL     OW11788   8.131   7.772   4.708 -0.5809 -0.2761  0.0396
 3265SOL    HW111789   8.164   7.805   4.792  1.1104 -2.5803  0.3864
 3265SOL    HW211790   8.191   7.809   4.643  0.0366 -0.9507  0.2095
 3266SOL     OW11791   2.891   6.139   0.617  0.2679  0.3438 -0.1779
 3266SOL    HW111792   2.970   6.159   0.668  0.1966  1.8642 -0.6063
 3266SOL    HW211793   2.863   6.224   0.583 -0.0173 -0.5469 -2.2765
 3267SOL     OW11794   4.615   0.476   4.879  0.0413  0.1689 -0.4466
 3267SOL    HW111795   4.669   0.533   4.934  0.7602 -0.6170 -0.3125
 3267SOL    HW211796   4.638   0.500   4.790 -0.0343  0.4357 -0.3948
 3268SOL     OW11797   7.462   2.947   8.159  0.4036 -0.4429  0.0898
 3268SOL    HW111798   7.499   2.867   8.123  1.8692 -0.2923  1.1443
 3268SOL    HW211799   7.538   2.994   8.195 -0.3142  1.6926 -1.0001
 3269SOL     OW11800   8.373   0.630   6.617 -0.2669  0.2513  0.0426
 3269SOL    HW111801   8.362   0.719   6.648  0.9555  0.6357 -0.5760
 3269SOL    HW211802   8.290   0.608   6.575 -0.8873  0.7609  0.9877
 3270SOL     OW11803   0.681   7.189   4.747 -0.4179 -0.3074 -0.4616
 3270SOL    HW111804   0.756   7.148   4.791 -0.7524 -1.0587 -0.5977
 3270SOL    HW211805   0.634   7.234   4.817  0.1660  0.1836 -0.3765
 3271SOL     OW11806   3.851   2.431   1.246  0.3446 -0.0465  0.1304
 3271SOL    HW111807   3.801   2.353   1.222 -0.3190  0.0126  1.2358
 3271SOL    HW211808   3.901   2.453   1.167 -0.1116 -1.0779 -0.4694
 3272SOL     OW11809   3.820   0.267   8.852 -0.3400  0.2280 -0.4774
 3272SOL    HW111810   3.860   0.181   8.865  0.5686  1.1108  4.0802
 3272SOL    HW211811   3.813   0.276   8.757  0.6075 -4.3216 -1.1965
 3273SOL     OW11812   2.870   2.112   8.661 -0.2252  0.1658  0.3211
 3273SOL    HW111813   2.851   2.035   8.715 -0.5767  0.4078  0.5510
 3273SOL    HW211814   2.913   2.173   8.721  0.1706  0.0941  0.1062
 3274SOL     OW11815   3.874   1.450   2.686  0.0017 -0.4656  0.4133
 3274SOL    HW111816   3.810   1.386   2.718 -0.2251 -0.6370 -0.3564
 3274SOL    HW211817   3.927   1.400   2.624 -1.5580  0.5665 -1.9016
 3275SOL     OW11818   8.335   3.218   6.895  0.1697  0.0475 -0.0161
 3275SOL    HW111819   8.257   3.225   6.840  0.3485 -2.3851 -0.6908
 3275SOL    HW211820   8.376   3.135   6.869  2.5775  0.8593  0.8600
 3276SOL     OW11821   5.342   4.900   5.105  0.0225 -0.7061 -0.0192
 3276SOL    HW111822   5.290   4.822   5.085  0.5297 -0.6218 -1.8860
 3276SOL    HW211823   5.406   4.870   5.170  0.4174 -1.9570 -0.9413
 3277SOL     OW11824   1.677   6.827   1.673  0.0448 -0.6011 -0.2789
 3277SOL    HW111825   1.661   6.736   1.697  0.6753 -0.4686  0.7285
 3277SOL    HW211826   1.757   6.850   1.720 -1.0360  0.9893  0.8847
 3278SOL     OW11827   6.549   1.210   8.316 -0.4543 -0.0678 -0.0905
 3278SOL    HW111828   6.533   1.297   8.279 -1.2446 -0.5608 -0.9309
 3278SOL    HW211829   6.467   1.163   8.303 -0.0825 -0.9025  0.4900
 3279SOL     OW11830   1.060   2.082   6.777 -0.4696 -0.5280  0.0120
 3279SOL    HW111831   1.117   2.159   6.772 -1.3754  0.1846  0.3375
 3279SOL    HW211832   1.107   2.020   6.832  0.2165 -0.1664 -0.1548
 3280SOL     OW11833   0.000   6.472   8.303  0.0274 -0.3908  0.5195
 3280SOL    HW111834   0.084   6.425   8.309 -0.7830 -1.9593  0.1989
 3280SOL    HW211835   0.025   6.564   8.299  1.7375 -0.8078  0.5075
 3281SOL     OW11836   2.808   3.729   1.498 -0.4040  0.3336 -0.5450
 3281SOL    HW111837   2.713   3.733   1.510 -0.6627 -0.9631 -1.9229
 3281SOL    HW211838   2.837   3.662   1.561 -0.5076  0.1818 -0.6585
 3282SOL     OW11839   8.455   8.724   2.477 -0.2800 -0.1154 -0.6939
 3282SOL    HW111840   8.454   8.819   2.481  0.4276 -0.1083 -0.5931
 3282SOL    HW211841   8.389   8.702   2.410 -0.5934  0.4284 -0.5677
 3283SOL     OW11842   2.835   4.592   7.040 -0.0394 -0.5672 -0.0227
 3283SOL    HW111843   2.868   4.605   7.129  0.3639 -0.4783 -0.1832
 3283SOL    HW211844   2.745   4.625   7.043  0.5916  1.3035 -0.1327
 3284SOL     OW11845   2.437   4.875   7.963  0.0991 -0.0824  0.8504
 3284SOL    HW111846   2.482   4.950   8.002 -0.2522  1.8140 -2.0599
 3284SOL    HW211847   2.508   4.822   7.926  0.2244  0.9060 -0.4141
 3285SOL     OW11848   4.599   0.126   6.570 -1.2747 -0.4360  0.4632
 3285SOL    HW111849   4.563   0.150   6.485 -0.3932  0.3412  0.2936
 3285SOL    HW211850   4.543   0.055   6.601 -2.4840  0.2364 -0.1163
 3286SOL     OW11851   6.651   0.336   3.769  0.1271 -0.5196  0.0716
 3286SOL    HW111852   6.625   0.268   3.707  0.6521  0.1179 -0.8705
 3286SOL    HW211853   6.675   0.411   3.715  0.0944  0.2383  1.0690
 3287SOL     OW11854   3.483   2.012   2.583 -0.4234  0.2509  0.1818
 3287SOL    HW111855   3.411   2.005   2.520 -0.1584  0.1221 -0.1128
 3287SOL    HW211856   3.546   2.071   2.541 -0.9816  1.5235  1.0477
 3288SOL     OW11857   1.568   7.559   2.284  0.2471  0.0974 -0.2714
 3288SOL    HW111858   1.584   7.653   2.293  0.8865  0.2336 -2.4360
 3288SOL    HW211859   1.486   7.545   2.332 -1.1043  2.2005 -1.7795
 3289SOL     OW11860   7.875   6.282   4.990  0.2835 -0.7145 -0.3654
 3289SOL    HW111861   7.837   6.290   4.902  1.8598  1.0949 -0.9593
 3289SOL    HW211862   7.926   6.201   4.988 -0.6657 -1.3158 -0.7007
 3290SOL     OW11863   8.527   5.253   7.325 -0.3024  0.0940 -0.3339
 3290SOL    HW111864   8.480   5.330   7.354  2.0123  0.6864  2.1919
 3290SOL    HW211865   8.617   5.282   7.311  0.3374 -1.8507 -0.6988
 3291SOL     OW11866   4.293   0.827   7.573 -0.3796 -0.1052 -0.5950
 3291SOL    HW111867   4.299   0.878   7.654 -0.1395  0.3737 -0.9056
 3291SOL    HW211868   4.199   0.816   7.558 -0.4303  0.0712 -0.4093
 3292SOL     OW11869   8.225   8.720   6.492 -0.1380  0.7351  0.1766
 3292SOL    HW111870   8.188   8.642   6.534 -1.1409  0.8929 -0.3856
 3292SOL    HW211871   8.191   8.793   6.543 -0.2738  0.8637 -0.0973
 3293SOL     OW11872   6.098   7.241   4.016 -0.7364 -0.0414 -0.0727
 3293SOL    HW111873   6.088   7.324   4.062 -0.9995  0.2958 -0.7329
 3293SOL    HW211874   6.008   7.212   3.999 -0.7449 -1.6651  2.2486
 3294SOL     OW11875   4.362   2.076   1.863 -0.2204  0.4784  0.1827
 3294SOL    HW111876   4.411   2.070   1.946  0.6962 -0.1958 -0.3844
 3294SOL    HW211877   4.386   1.996   1.816  0.1724  1.3839 -1.2152
 3295SOL     OW11878   4.589   6.810   2.981  0.0753  0.0901  0.5415
 3295SOL    HW111879   4.551   6.730   3.018  0.0362  0.7198  1.9224
 3295SOL    HW211880   4.636   6.850   3.053 -0.0110  1.3845 -0.0889
 3296SOL     OW11881   8.175   0.239   1.917  0.0936  0.8217 -0.2421
 3296SOL    HW111882   8.181   0.182   1.840 -0.0137  0.5708 -0.0653
 3296SOL    HW211883   8.265   0.267   1.934  0.3703 -0.4954  0.5717
 3297SOL     OW11884   6.432   8.583   0.862  0.2271 -0.0483  0.0150
 3297SOL    HW111885   6.432   8.651   0.795 -0.7494 -1.3627 -1.3772
 3297SOL    HW211886   6.524   8.563   0.877  0.4834  0.8924 -0.2437
 3298SOL     OW11887   5.345   6.352   7.876  0.2882  0.3234  0.3641
 3298SOL    HW111888   5.349   6.442   7.908  0.6341 -0.3231  2.3129
 3298SOL    HW211889   5.253   6.338   7.854  0.4751  1.5729 -1.3896
 3299SOL     OW11890   6.497   5.123   2.730 -0.5126  0.4259  0.2507
 3299SOL    HW111891   6.570   5.184   2.716 -1.1354  0.7264 -2.0826
 3299SOL    HW211892   6.536   5.036   2.717 -0.0089  0.3768  1.8397
 3300SOL     OW11893   8.608   1.061   0.124 -0.1208  0.3663  0.6405
 3300SOL    HW111894   8.653   0.977   0.113  1.8677  1.6365 -2.0250
 3300SOL    HW211895   8.515   1.041   0.112  0.4075 -1.3447 -1.0368
 3301SOL     OW11896   5.859   5.174   5.204  0.2331  0.7459  0.5087
 3301SOL    HW111897   5.821   5.117   5.137 -2.0273  2.3019  0.3861
 3301SOL    HW211898   5.954   5.166   5.190 -0.0324 -1.7188 -0.5126
 3302SOL     OW11899   3.719   2.388   4.402 -0.3430 -0.2232  0.0192
 3302SOL    HW111900   3.658   2.445   4.355 -0.8631 -0.3129  0.5744
 3302SOL    HW211901   3.792   2.376   4.341 -0.7102  0.1815 -0.5130
 3303SOL     OW11902   7.122   5.563   2.061 -0.0941  0.0218 -0.0924
 3303SOL    HW111903   7.103   5.634   2.122  0.2373  0.1584 -0.1467
 3303SOL    HW211904   7.134   5.607   1.976 -0.4769 -0.1590 -0.2431
 3304SOL     OW11905   3.517   5.244   8.886  0.1920  0.0728  0.2989
 3304SOL    HW111906   3.562   5.159   8.887 -0.6847 -0.3959  0.7136
 3304SOL    HW211907   3.528   5.278   8.975 -2.6366 -1.3544  1.3280
 3305SOL     OW11908   1.010   1.858   0.362 -0.3153 -0.1265  0.2466
 3305SOL    HW111909   1.105   1.849   0.362  0.0425  2.6791 -0.2442
 3305SOL    HW211910   0.990   1.898   0.446 -0.6422  1.9545 -0.7439
 3306SOL     OW11911   8.507   2.451   6.933 -0.3704 -0.2067  0.4149
 3306SOL    HW111912   8.555   2.530   6.908 -0.3528  0.3252  1.9971
 3306SOL    HW211913   8.573   2.382   6.936 -0.3105 -0.2027 -0.5696
 3307SOL     OW11914   8.225   1.439   0.233  0.6118  0.7264  0.0406
 3307SOL    HW111915   8.219   1.354   0.277  0.7758  1.2382  1.0893
 3307SOL    HW211916   8.223   1.418   0.140 -1.9078 -0.2487  0.2496
 3308SOL     OW11917   2.318   4.247   0.933 -0.4011 -0.4372 -0.0020
 3308SOL    HW111918   2.312   4.174   0.872  0.2032  0.6692 -1.4373
 3308SOL    HW211919   2.401   4.290   0.912 -1.4258  1.5435 -0.2324
 3309SOL     OW11920   2.348   7.399   2.354 -0.4233 -0.5959 -0.2246
 3309SOL    HW111921   2.336   7.329   2.418 -0.1470 -0.9520 -0.5554
 3309SOL    HW211922   2.264   7.445   2.353 -1.2890 -2.1041 -1.4005
 3310SOL     OW11923   5.126   6.104   3.316  0.3389 -0.4746  0.3172
 3310SOL    HW111924   5.203   6.106   3.260  0.6539  1.0587  0.7581
 3310SOL    HW211925   5.067   6.168   3.277  1.0734  1.5823  2.3920
 3311SOL     OW11926   2.256   8.764   8.827  0.0921 -0.2191  0.0331
 3311SOL    HW111927   2.347   8.787   8.806 -0.1432  0.3240 -0.4057
 3311SOL    HW211928   2.222   8.842   8.871 -0.8117  0.4513 -1.7537
 3312SOL     OW11929   6.430   0.549   4.566 -0.1323 -0.2762  0.4052
 3312SOL    HW111930   6.398   0.465   4.532  1.2633 -0.5578 -0.3193
 3312SOL    HW211931   6.369   0.614   4.532 -1.0150 -0.9632  0.6519
 3313SOL     OW11932   0.348   2.644   5.413 -0.1973  0.2666  0.0135
 3313SOL    HW111933   0.299   2.624   5.493 -0.1411 -0.2192 -0.0696
 3313SOL    HW211934   0.360   2.738   5.415 -3.3314  0.8256 -1.2058
 3314SOL     OW11935   4.176   1.017   1.878  0.1153  0.3958 -0.5956
 3314SOL    HW111936   4.138   0.933   1.904 -1.5762  1.2936 -0.0274
 3314SOL    HW211937   4.235   0.995   1.805  1.5454 -1.5716  1.0360
 3315SOL     OW11938   6.810   1.925   6.551 -0.7421  0.0373  0.1835
 3315SOL    HW111939   6.824   1.955   6.641 -2.3096 -0.3922  0.5924
 3315SOL    HW211940   6.748   1.853   6.559 -1.8633  0.7877 -1.3473
 3316SOL     OW11941   8.513   0.840   2.628  0.2239 -0.0508 -0.0386
 3316SOL    HW111942   8.601   0.832   2.590  0.0532  1.2673 -0.7667
 3316SOL    HW211943   8.465   0.895   2.567 -1.8087 -2.4311 -0.7450
 3317SOL     OW11944   3.160   8.254   3.493 -0.0917 -0.0338 -0.4297
 3317SOL    HW111945   3.066   8.268   3.486  0.2342  2.2760 -1.0038
 3317SOL    HW211946   3.195   8.339   3.520  1.7535 -1.0883  0.7105
 3318SOL     OW11947   5.047   1.776   4.026 -0.3992  0.1830 -0.8113
 3318SOL    HW111948   5.082   1.739   4.107 -1.3705  0.4301 -0.2551
 3318SOL    HW211949   5.105   1.848   4.005  0.4125 -0.4740 -0.8631
 3319SOL     OW11950   0.882   8.149   5.917 -0.7136 -0.4661  0.0222
 3319SOL    HW111951   0.921   8.224   5.962 -2.8222  0.1632  0.9174
 3319SOL    HW211952   0.937   8.137   5.840  1.3503  0.1893  1.3128
 3320SOL     OW11953   0.143   0.298   0.965  0.3140  0.0508 -0.0327
 3320SOL    HW111954   0.194   0.346   1.030  0.6528  0.3172 -0.4829
 3320SOL    HW211955   0.112   0.366   0.904 -1.0281 -0.0346  0.5165
 3321SOL     OW11956   5.489   5.206   8.713  0.2017  0.1268  0.0090
 3321SOL    HW111957   5.424   5.232   8.778  0.4996 -2.3445  1.3928
 3321SOL    HW211958   5.438   5.172   8.640 -0.1008 -0.9713  0.7162
 3322SOL     OW11959   3.681   1.110   7.054 -0.3153  0.5375 -0.1625
 3322SOL    HW111960   3.599   1.160   7.059 -0.4542  0.3932 -0.8520
 3322SOL    HW211961   3.663   1.041   6.990  0.4052  0.6338 -0.4816
 3323SOL     OW11962   0.995   4.667   3.845  0.1538  0.2955  0.0741
 3323SOL    HW111963   0.942   4.641   3.920  0.4797  1.9832  0.9582
 3323SOL    HW211964   0.933   4.705   3.783  0.0399  0.0150  0.0131
 3324SOL     OW11965   5.853   5.309   6.396 -0.0098  0.6138  0.5043
 3324SOL    HW111966   5.906   5.338   6.322 -2.3388  2.3375 -0.6146
 3324SOL    HW211967   5.806   5.233   6.363 -0.0940  0.5934  0.6684
 3325SOL     OW11968   3.825   7.041   3.971  0.1415  0.2543 -0.1049
 3325SOL    HW111969   3.773   6.966   3.942  0.5399  0.0868 -0.3855
 3325SOL    HW211970   3.761   7.111   3.982 -0.1052  0.1237 -0.7102
 3326SOL     OW11971   5.242   5.343   1.564  0.2986 -0.0698 -0.5719
 3326SOL    HW111972   5.334   5.322   1.576 -0.0629 -1.0869  0.6167
 3326SOL    HW211973   5.242   5.425   1.515  1.8743  1.5526  1.9325
 3327SOL     OW11974   0.201   5.819   1.069  0.4182 -0.2356 -0.2260
 3327SOL    HW111975   0.193   5.895   1.011 -0.6141 -0.1829 -0.0321
 3327SOL    HW211976   0.194   5.855   1.157 -1.1318 -0.6391 -0.1486
 3328SOL     OW11977   3.704   5.611   2.247 -0.0634  0.5169  0.3954
 3328SOL    HW111978   3.618   5.574   2.228  0.6379 -0.7709 -0.3771
 3328SOL    HW211979   3.714   5.600   2.342 -0.5021  0.1232  0.3970
 3329SOL     OW11980   2.076   7.228   6.322  0.0546  0.3873 -0.2694
 3329SOL    HW111981   2.045   7.144   6.357  0.4487  0.6365  0.7302
 3329SOL    HW211982   2.044   7.293   6.384 -0.0664  0.9598 -0.9242
 3330SOL     OW11983   4.426   5.504   1.538 -0.2286 -0.0427  0.3352
 3330SOL    HW111984   4.416   5.591   1.498  1.7654  0.3257  0.4876
 3330SOL    HW211985   4.486   5.519   1.611  1.3223 -1.7371 -0.4995
 3331SOL     OW11986   2.678   4.656   1.029  0.2814  0.5812 -0.7407
 3331SOL    HW111987   2.650   4.690   1.114 -1.7017 -1.4051 -0.5061
 3331SOL    HW211988   2.640   4.717   0.966 -1.1205  0.2193 -0.2733
 3332SOL     OW11989   7.611   0.107   1.917  0.2669 -0.7233 -0.1980
 3332SOL    HW111990   7.578   0.017   1.920 -0.8684 -0.3622 -0.9579
 3332SOL    HW211991   7.536   0.158   1.885  0.1406  0.8375  2.3078
 3333SOL     OW11992   6.880   2.548   6.341  0.3813 -0.2763  0.3491
 3333SOL    HW111993   6.901   2.506   6.424  0.4394  0.6208  0.8066
 3333SOL    HW211994   6.878   2.642   6.362 -0.6285 -0.1100 -0.4377
 3334SOL     OW11995   6.929   0.948   7.818  0.6371  0.4380  0.2012
 3334SOL    HW111996   6.882   1.026   7.789  0.3156  0.1878  0.0467
 3334SOL    HW211997   6.879   0.915   7.893  0.9294  0.5366  0.4456
 3335SOL     OW11998   0.910   2.022   2.483  0.2862  0.6590 -0.4739
 3335SOL    HW111999   0.939   2.108   2.513  2.0499 -0.4211  1.2393
 3335SOL    HW212000   0.844   1.996   2.547  0.6119  0.2917 -0.2772
 3336SOL     OW12001   5.208   0.484   5.273  0.3639  0.0572 -0.1219
 3336SOL    HW112002   5.225   0.390   5.281 -0.1977 -0.2175 -1.6535
 3336SOL    HW212003   5.274   0.515   5.211 -0.3504  0.3656 -0.7512
 3337SOL     OW12004   2.208   4.897   1.577  0.6049 -0.0325 -0.2315
 3337SOL    HW112005   2.254   4.884   1.660  0.0536  0.6801  0.2008
 3337SOL    HW212006   2.128   4.846   1.585  1.1791 -1.0685 -0.8847
 3338SOL     OW12007   0.647   8.392   1.934  0.9925 -0.3117  0.0083
 3338SOL    HW112008   0.642   8.395   1.839 -0.3088  1.7608  0.0763
 3338SOL    HW212009   0.565   8.352   1.961  1.3288 -0.8327  0.2698
 3339SOL     OW12010   7.716   2.179   7.660  0.1998 -0.1406  0.1574
 3339SOL    HW112011   7.656   2.128   7.715 -1.3858  0.2957 -1.0987
 3339SOL    HW212012   7.678   2.267   7.658  1.6419  0.5195  0.4087
 3340SOL     OW12013   2.907   1.014   1.487  0.5484 -0.2700  0.5131
 3340SOL    HW112014   2.883   1.085   1.427  1.7924  0.5459  0.9417
 3340SOL    HW212015   2.947   0.947   1.432  0.1313 -0.2822  0.2199
 3341SOL     OW12016   0.591   2.637   3.385 -0.3975  0.3130  0.0667
 3341SOL    HW112017   0.642   2.698   3.332 -1.6898  1.4086  0.0348
 3341SOL    HW212018   0.653   2.566   3.406  1.0166  1.3995 -0.2627
 3342SOL     OW12019   7.487   4.223   6.891  0.2997 -0.1212  0.7186
 3342SOL    HW112020   7.524   4.135   6.896  0.0983 -0.3231 -0.8332
 3342SOL    HW212021   7.555   4.275   6.847 -0.7816 -0.2605 -1.2225
 3343SOL     OW12022   0.593   4.388   3.827 -0.2435  0.6836 -0.1464
 3343SOL    HW112023   0.631   4.401   3.741 -1.6405  1.0554 -0.7373
 3343SOL    HW212024   0.517   4.331   3.813 -2.8413  3.7560  0.1076
 3344SOL     OW12025   4.268   1.354   6.297 -0.4387 -0.6112 -1.1769
 3344SOL    HW112026   4.173   1.358   6.286 -0.4588 -0.8818 -1.1255
 3344SOL    HW212027   4.292   1.441   6.329 -0.7016 -0.6175 -0.9551
 3345SOL     OW12028   7.594   3.420   6.846  0.1378  0.6329  0.0635
 3345SOL    HW112029   7.610   3.514   6.847  0.7090  0.5400  0.6496
 3345SOL    HW212030   7.673   3.382   6.887 -0.0512 -0.0988 -0.2359
 3346SOL     OW12031   6.161   2.669   3.968 -0.3631  0.1975 -0.0293
 3346SOL    HW112032   6.224   2.603   3.996  0.4226  0.1815 -1.7301
 3346SOL    HW212033   6.092   2.619   3.924 -0.6595  0.3702  0.2338
 3347SOL     OW12034   4.116   4.847   0.195 -0.0803 -0.9345 -0.0261
 3347SOL    HW112035   4.075   4.865   0.110  0.1909 -2.0198 -0.4097
 3347SOL    HW212036   4.182   4.915   0.205 -1.1820  0.1640  0.0730
 3348SOL     OW12037   3.791   8.336   8.454 -0.0201  0.0038  0.7171
 3348SOL    HW112038   3.882   8.322   8.480  0.4432  0.3061 -0.6736
 3348SOL    HW212039   3.741   8.281   8.514  1.0570 -0.0552  1.6021
 3349SOL     OW12040   4.062   4.160   0.232 -0.0725  0.1252 -0.0351
 3349SOL    HW112041   3.981   4.111   0.242  0.4151 -0.8269 -0.5354
 3349SOL    HW212042   4.035   4.246   0.201 -0.8610 -0.3364 -0.6761
 3350SOL     OW12043   5.498   8.507   5.584  0.5564  0.1381  0.0936
 3350SOL    HW112044   5.589   8.505   5.614  0.7686  1.3758 -0.4057
 3350SOL    HW212045   5.494   8.581   5.524 -0.9631  0.6279  0.7323
 3351SOL     OW12046   5.917   8.270   8.359 -0.0855 -0.0059  0.3258
 3351SOL    HW112047   5.829   8.286   8.324  0.1212 -1.8526 -1.1951
 3351SOL    HW212048   5.936   8.179   8.336  1.9647  0.1408  1.2290
 3352SOL     OW12049   4.361   2.121   6.532  0.3417 -0.3119  0.3964
 3352SOL    HW112050   4.454   2.099   6.519  0.5986  0.0798  1.4695
 3352SOL    HW212051   4.362   2.189   6.599 -0.7381 -0.3719  0.4814
 3353SOL     OW12052   3.450   3.601   8.485  0.4906 -0.0843 -0.2583
 3353SOL    HW112053   3.504   3.678   8.501  1.3886 -0.4829 -1.2469
 3353SOL    HW212054   3.506   3.542   8.434 -1.2602 -0.0418 -2.3933
 3354SOL     OW12055   5.714   5.030   3.421  0.0617 -0.4656 -0.5703
 3354SOL    HW112056   5.805   5.030   3.450  0.1626  2.4522 -0.5726
 3354SOL    HW212057   5.692   4.938   3.409  2.5454 -1.3298  0.8471
 3355SOL     OW12058   2.576   8.711   3.350 -0.0812  0.4184  0.0710
 3355SOL    HW112059   2.594   8.802   3.326 -0.2193  0.1152 -1.2210
 3355SOL    HW212060   2.488   8.712   3.386 -1.2311  0.3806 -2.5636
 3356SOL     OW12061   7.281   5.362   2.687  0.0477  0.2220  0.6523
 3356SOL    HW112062   7.195   5.375   2.727 -0.2831  0.5041 -0.1208
 3356SOL    HW212063   7.340   5.346   2.760 -0.5210  0.8209  1.2541
 3357SOL     OW12064   2.256   5.152   2.059 -0.0169 -0.3064 -0.1020
 3357SOL    HW112065   2.326   5.171   2.122  1.1268 -0.3696 -1.3197
 3357SOL    HW212066   2.196   5.095   2.107  0.6459 -0.0861  1.0317
 3358SOL     OW12067   8.663   0.859   6.948  0.5941  0.0969  0.7014
 3358SOL    HW112068   8.734   0.801   6.976  0.4542  0.1180  1.1102
 3358SOL    HW212069   8.596   0.799   6.915  0.5802  0.0447  0.8238
 3359SOL     OW12070   5.474   7.088   5.596  0.0337  0.6661 -0.4991
 3359SOL    HW112071   5.469   7.183   5.582 -0.2095  0.5199 -1.5315
 3359SOL    HW212072   5.535   7.078   5.669  0.8468  1.5745 -1.0165
 3360SOL     OW12073   5.119   2.716   5.739 -0.5544 -0.3977 -0.2927
 3360SOL    HW112074   5.205   2.752   5.763 -1.1213  0.5678  0.3450
 3360SOL    HW212075   5.130   2.689   5.648  0.2757  0.2156 -0.3923
 3361SOL     OW12076   1.023   3.603   4.316 -0.3217 -0.2035  0.0483
 3361SOL    HW112077   0.992   3.580   4.404  0.3876  1.5902  0.8176
 3361SOL    HW212078   1.047   3.695   4.323  0.0439 -0.1101 -1.9691
 3362SOL     OW12079   0.824   2.433   4.285 -0.1914  0.1688 -0.1331
 3362SOL    HW112080   0.877   2.354   4.291  0.9895  0.9697  0.3815
 3362SOL    HW212081   0.818   2.452   4.191 -0.1762 -0.3330 -0.2345
 3363SOL     OW12082   5.307   1.139   7.336  0.6213  0.0408 -0.1041
 3363SOL    HW112083   5.391   1.110   7.372  0.4269  1.0823  1.2690
 3363SOL    HW212084   5.304   1.101   7.248  0.9669 -2.9084  1.0741
 3364SOL     OW12085   2.620   8.521   3.147  0.0111  0.3274 -0.3225
 3364SOL    HW112086   2.714   8.539   3.145 -0.0766  0.7689 -0.4305
 3364SOL    HW212087   2.592   8.552   3.233  0.2276 -1.1492  0.3224
 3365SOL     OW12088   1.143   6.729   4.291  0.8367 -0.3291 -0.3039
 3365SOL    HW112089   1.121   6.644   4.252  1.9606 -0.5657 -0.4751
 3365SOL    HW212090   1.209   6.709   4.358  0.4733  0.3141  0.2588
 3366SOL     OW12091   8.596   5.935   7.936  0.1547 -0.1941 -0.8048
 3366SOL    HW112092   8.684   5.905   7.915  0.7973 -2.2761  3.6138
 3366SOL    HW212093   8.602   6.030   7.935  2.7641 -0.2677  0.1924
 3367SOL     OW12094   4.663   2.210   8.783  0.0379 -0.0248 -0.1181
 3367SOL    HW112095   4.734   2.210   8.847  0.5153 -0.4722 -0.6344
 3367SOL    HW212096   4.662   2.121   8.749 -0.5525  0.0736 -0.3597
 3368SOL     OW12097   5.163   2.838   7.528  0.1564  0.3146 -0.3139
 3368SOL    HW112098   5.258   2.839   7.541  0.1742  0.2650 -0.4401
 3368SOL    HW212099   5.128   2.878   7.607  0.2494 -0.2155  0.0022
 3369SOL     OW12100   6.051   0.811   3.791 -0.0299 -0.2773 -0.4288
 3369SOL    HW112101   5.974   0.758   3.768 -0.1469  0.1637 -1.0595
 3369SOL    HW212102   6.109   0.750   3.837 -0.8262 -0.5753  0.2014
 3370SOL     OW12103   3.778   4.304   1.996 -0.7541  0.2006 -0.2276
 3370SOL    HW112104   3.871   4.322   2.007 -0.6230 -0.2532 -0.5557
 3370SOL    HW212105   3.747   4.371   1.935 -1.0151  1.3789  1.1426
 3371SOL     OW12106   7.989   0.722   7.658  0.4255 -0.0005  0.3118
 3371SOL    HW112107   8.049   0.796   7.667  1.4875 -0.2831 -3.1275
 3371SOL    HW212108   8.045   0.645   7.660 -0.5467 -0.7282  2.6903
 3372SOL     OW12109   1.990   1.263   1.081 -0.3926 -0.3261 -0.9099
 3372SOL    HW112110   1.907   1.232   1.044 -1.7694  0.8306  1.0441
 3372SOL    HW212111   1.988   1.236   1.173  1.1220  0.2755 -0.6549
 3373SOL     OW12112   1.327   8.638   0.726  0.1425  0.1615 -0.1576
 3373SOL    HW112113   1.315   8.685   0.808 -1.5962 -2.0598  0.9730
 3373SOL    HW212114   1.284   8.692   0.660 -1.1883  0.5221  0.9564
 3374SOL     OW12115   0.827   3.541   5.656  0.1210 -0.8397 -0.1522
 3374SOL    HW112116   0.831   3.516   5.748 -3.1007  1.2993  0.7118
 3374SOL    HW212117   0.750   3.495   5.621  1.8200 -2.3876 -2.1365
 3375SOL     OW12118   7.010   5.840   7.353  0.0838  0.1774  0.0562
 3375SOL    HW112119   6.925   5.880   7.338  0.2801  0.8644  0.7441
 3375SOL    HW212120   7.068   5.880   7.288  0.1554  0.6235  0.3882
 3376SOL     OW12121   8.342   0.530   4.973  0.0600 -0.2336  0.3525
 3376SOL    HW112122   8.312   0.508   4.885 -0.0667 -1.0306  0.5900
 3376SOL    HW212123   8.381   0.617   4.964 -0.6587  0.0283 -0.3297
 3377SOL     OW12124   4.232   7.549   7.785 -0.1555  0.2094 -0.9414
 3377SOL    HW112125   4.181   7.489   7.730  0.2769  0.4383 -1.6153
 3377SOL    HW212126   4.170   7.581   7.850 -0.4102 -0.9319 -0.5954
 3378SOL     OW12127   6.344   7.932   3.528 -0.3574  0.0002 -0.0115
 3378SOL    HW112128   6.296   7.882   3.462 -0.3585  0.8924 -0.6989
 3378SOL    HW212129   6.379   8.007   3.481 -0.4295  0.7042  1.0209
 3379SOL     OW12130   3.426   0.146   4.782  0.8415  0.1962 -0.4409
 3379SOL    HW112131   3.406   0.075   4.720 -1.4717 -0.2566  0.7067
 3379SOL    HW212132   3.474   0.210   4.730 -0.5355 -0.4083 -2.5849
 3380SOL     OW12133   8.846   3.748   6.810  0.1649  0.5727  0.1635
 3380SOL    HW112134   8.821   3.732   6.719  2.7093  1.1978 -0.7367
 3380SOL    HW212135   8.894   3.831   6.807  0.1248  0.7154  2.1306
 3381SOL     OW12136   8.321   8.564   4.171 -0.2211 -0.0713 -0.3275
 3381SOL    HW112137   8.318   8.580   4.077 -2.1052  1.4005 -0.0617
 3381SOL    HW212138   8.385   8.626   4.205  0.3470 -0.5009 -0.5930
 3382SOL     OW12139   0.188   7.851   7.869  0.4280 -0.2376  0.2726
 3382SOL    HW112140   0.255   7.793   7.906 -1.0481 -1.5099  1.0558
 3382SOL    HW212141   0.200   7.844   7.774  2.6044  1.0699  0.3832
 3383SOL     OW12142   8.488   7.182   2.705  0.0090  0.3912 -0.1531
 3383SOL    HW112143   8.550   7.116   2.675 -0.8373  0.3283 -1.9672
 3383SOL    HW212144   8.446   7.144   2.782  1.5495  0.0703  0.5499
 3384SOL     OW12145   8.838   7.249   8.670 -0.4856  0.7616 -0.3086
 3384SOL    HW112146   8.825   7.262   8.764  0.7865 -0.8104  0.1280
 3384SOL    HW212147   8.911   7.306   8.647 -0.1794  0.4451 -0.1304
 3385SOL     OW12148   5.980   4.828   6.233  0.3657  0.1210  0.7244
 3385SOL    HW112149   6.038   4.760   6.198 -0.0310  1.0550 -2.0453
 3385SOL    HW212150   5.903   4.825   6.176 -0.7959  1.2063  2.1619
 3386SOL     OW12151   1.536   1.938   3.835  0.8195 -0.1913  0.1270
 3386SOL    HW112152   1.582   2.007   3.787 -1.4797 -0.2969 -2.4873
 3386SOL    HW212153   1.569   1.856   3.798 -1.8413 -0.2643 -2.4608
 3387SOL     OW12154   7.649   6.060   0.632 -0.4208 -0.0249 -0.3150
 3387SOL    HW112155   7.698   6.028   0.708  0.5857  1.1844 -0.4193
 3387SOL    HW212156   7.693   6.022   0.557  1.8049  2.6759 -0.5418
 3388SOL     OW12157   0.921   1.518   6.562  0.4658  0.3730  0.0415
 3388SOL    HW112158   0.910   1.529   6.657  0.1977 -1.2338  0.2372
 3388SOL    HW212159   1.004   1.471   6.553  0.1687 -0.0628 -0.4639
 3389SOL     OW12160   0.727   4.323   3.319  0.7104 -0.0598 -0.3212
 3389SOL    HW112161   0.664   4.312   3.247  0.1389  1.1347 -0.0299
 3389SOL    HW212162   0.674   4.346   3.395  1.4065 -0.1638  0.2113
 3390SOL     OW12163   6.304   4.192   1.056  0.0896 -0.4657 -0.7169
 3390SOL    HW112164   6.295   4.151   1.142 -0.0562 -1.3246 -1.1226
 3390SOL    HW212165   6.326   4.283   1.074 -0.2766 -0.5555  0.2283
 3391SOL     OW12166   2.742   1.006   6.583  0.1458  0.2855  0.3938
 3391SOL    HW112167   2.672   1.056   6.540 -1.5209  0.1874  2.7977
 3391SOL    HW212168   2.809   1.072   6.603 -0.2188  0.8010 -0.0496
 3392SOL     OW12169   5.178   4.148   0.530 -0.0764  0.1813 -0.3604
 3392SOL    HW112170   5.106   4.172   0.588 -0.6360  0.1595 -1.0280
 3392SOL    HW212171   5.210   4.232   0.495 -0.0786  0.1612 -0.4109
 3393SOL     OW12172   6.452   8.635   0.404  0.1974  0.1733  0.3511
 3393SOL    HW112173   6.457   8.540   0.394  0.4699  0.3055 -0.8336
 3393SOL    HW212174   6.361   8.656   0.384  0.1790  0.1875  0.4472
 3394SOL     OW12175   6.549   6.791   1.118  0.4179  0.2880 -0.4939
 3394SOL    HW112176   6.547   6.762   1.027 -2.0166 -0.0068 -0.3961
 3394SOL    HW212177   6.457   6.801   1.143  0.9333 -0.8324  2.3064
 3395SOL     OW12178   8.589   1.793   4.940  0.2286 -0.2667  0.1210
 3395SOL    HW112179   8.600   1.792   5.036 -0.5151  0.2488  0.2173
 3395SOL    HW212180   8.678   1.801   4.906  0.4023  1.0060  0.8127
 3396SOL     OW12181   4.933   7.913   1.275  0.5030  0.0419  0.1788
 3396SOL    HW112182   4.977   7.926   1.359 -1.9219  0.5076  1.4689
 3396SOL    HW212183   4.845   7.882   1.298 -0.4080  0.6294 -2.1651
 3397SOL     OW12184   1.746   8.331   4.017 -0.0100 -0.2683 -0.0439
 3397SOL    HW112185   1.674   8.318   4.079 -0.5252 -2.1608 -0.9743
 3397SOL    HW212186   1.769   8.424   4.027 -1.8422  0.1255  1.0458
 3398SOL     OW12187   5.843   7.429   4.830  0.4278  0.1144 -0.3256
 3398SOL    HW112188   5.795   7.364   4.881 -1.5704 -0.0927 -2.3051
 3398SOL    HW212189   5.798   7.512   4.846  1.0637  0.4503 -0.2005
 3399SOL     OW12190   2.351   3.835   8.069 -0.1852 -0.2427  0.1181
 3399SOL    HW112191   2.401   3.907   8.031 -0.5914  0.9829  1.7894
 3399SOL    HW212192   2.418   3.776   8.105  0.1369 -0.5085 -0.8820
 3400SOL     OW12193   1.772   2.616   6.203  0.9364 -0.0088  0.1002
 3400SOL    HW112194   1.698   2.566   6.237  0.8699  0.5669  0.8160
 3400SOL    HW212195   1.768   2.603   6.108 -1.1959  1.4895 -0.0803
 3401SOL     OW12196   8.195   1.421   2.065  0.0598  0.1639 -0.2174
 3401SOL    HW112197   8.202   1.328   2.089 -0.8494  0.2730  0.5452
 3401SOL    HW212198   8.123   1.454   2.119 -0.3343  1.0669 -1.2584
 3402SOL     OW12199   0.677   7.674   4.077  0.2779 -0.3317  0.0632
 3402SOL    HW112200   0.648   7.740   4.140  2.1840  0.6381 -0.0028
 3402SOL    HW212201   0.642   7.704   3.993  1.3886  0.7936 -0.0175
 3403SOL     OW12202   2.384   2.413   5.216 -0.5270  0.5780  0.0526
 3403SOL    HW112203   2.318   2.415   5.146 -0.0240  1.6156 -0.4202
 3403SOL    HW212204   2.467   2.396   5.170 -0.2338  0.9850  0.4256
 3404SOL     OW12205   6.385   6.002   7.622 -0.2457  0.5050  0.1167
 3404SOL    HW112206   6.327   5.956   7.561 -1.1077  0.1474  1.1767
 3404SOL    HW212207   6.441   5.933   7.658 -0.9065  0.4078  1.0019
 3405SOL     OW12208   5.379   7.962   7.475 -0.4443  0.3203  0.4702
 3405SOL    HW112209   5.362   7.917   7.557  1.8974  1.1912  1.5401
 3405SOL    HW212210   5.451   8.022   7.495 -0.3428  1.1688 -2.0181
 3406SOL     OW12211   7.310   0.817   5.009  1.0903  0.2491  0.4617
 3406SOL    HW112212   7.244   0.784   5.070  0.8880 -1.3830 -0.5730
 3406SOL    HW212213   7.300   0.912   5.011 -1.6631  0.0409 -0.0643
 3407SOL     OW12214   1.649   3.739   2.332 -0.3251  0.4253  0.0479
 3407SOL    HW112215   1.559   3.709   2.347 -0.2677  0.0354 -0.3590
 3407SOL    HW212216   1.702   3.690   2.396 -0.2314 -0.3611 -0.6162
 3408SOL     OW12217   8.557   2.032   5.424 -0.5385  0.0291 -0.0142
 3408SOL    HW112218   8.528   1.960   5.480  0.3737 -0.0810  0.3228
 3408SOL    HW212219   8.584   1.989   5.342  0.7732 -0.1058  0.4791
 3409SOL     OW12220   2.562   3.932   4.067 -0.4115 -0.1162 -0.2267
 3409SOL    HW112221   2.644   3.900   4.029  0.3152  0.0072  1.1717
 3409SOL    HW212222   2.533   4.001   4.007 -0.8949 -1.8708 -2.1490
 3410SOL     OW12223   0.303   3.903   6.395  0.0486 -0.1247  0.7068
 3410SOL    HW112224   0.325   3.812   6.372 -1.0451  0.0258 -1.1325
 3410SOL    HW212225   0.328   3.954   6.319  0.1636  1.0697  1.5174
 3411SOL     OW12226   2.073   1.575   4.325 -0.1869 -0.1442  0.2295
 3411SOL    HW112227   2.116   1.573   4.410 -2.2700 -0.6380  1.3291
 3411SOL    HW212228   1.984   1.604   4.343 -0.3853  0.8196 -1.9457
 3412SOL     OW12229   4.202   5.212   2.260  0.1001  0.3327  0.6129
 3412SOL    HW112230   4.191   5.307   2.252  2.0823  0.5754  0.2294
 3412SOL    HW212231   4.144   5.187   2.331 -1.0395  1.7004  0.2190
 3413SOL     OW12232   8.735   6.835   2.303  0.2921  0.2679 -0.1436
 3413SOL    HW112233   8.827   6.829   2.328  1.1745  3.8954 -1.7884
 3413SOL    HW212234   8.729   6.790   2.219  0.5798  0.1276 -0.0893
 3414SOL     OW12235   1.322   0.746   0.652 -0.1166  1.0904  0.2132
 3414SOL    HW112236   1.324   0.735   0.557  1.3760 -0.9161  0.3801
 3414SOL    HW212237   1.326   0.840   0.666  0.6207  1.3938 -1.7197
 3415SOL     OW12238   5.477   4.620   7.519  0.3880  0.1781 -0.1503
 3415SOL    HW112239   5.507   4.553   7.459  1.3545 -0.3044  0.8399
 3415SOL    HW212240   5.557   4.665   7.547  0.1320 -0.4177  1.6967
 3416SOL     OW12241   1.099   8.364   0.222  0.2874  0.1945  0.1422
 3416SOL    HW112242   1.031   8.401   0.278 -0.0321 -1.6193  1.0038
 3416SOL    HW212243   1.051   8.315   0.155  0.7240  0.5608 -0.4599
 3417SOL     OW12244   8.637   6.160   6.394  0.7473  0.4386  0.2789
 3417SOL    HW112245   8.731   6.152   6.375  0.1758 -0.6982 -2.6767
 3417SOL    HW212246   8.613   6.074   6.429  1.0502  1.2826  2.7325
 3418SOL     OW12247   8.759   1.500   2.411  0.3864 -0.4127 -0.3029
 3418SOL    HW112248   8.673   1.461   2.420 -1.8348  4.0148  0.1831
 3418SOL    HW212249   8.758   1.543   2.325  0.9112  1.9823  0.7801
 3419SOL     OW12250   6.844   0.050   1.009 -0.6835 -0.3000  0.1321
 3419SOL    HW112251   6.867   0.118   0.947  1.3431 -0.9563  0.0892
 3419SOL    HW212252   6.813  -0.023   0.955  1.0781 -0.8709 -0.1573
 3420SOL     OW12253   7.664   4.529   4.726  0.2922  0.4385 -0.0155
 3420SOL    HW112254   7.664   4.602   4.665 -0.7425  1.7341  1.4457
 3420SOL    HW212255   7.584   4.481   4.706  0.6408  0.0752 -0.5499
 3421SOL     OW12256   8.796   0.772   3.826  0.2310 -0.5508 -0.6955
 3421SOL    HW112257   8.794   0.849   3.769  0.1007 -0.1996 -0.2239
 3421SOL    HW212258   8.820   0.700   3.768  4.3645  0.4454 -0.5038
 3422SOL     OW12259   5.043   1.946   5.137  0.0534 -0.2582  0.4346
 3422SOL    HW112260   4.948   1.943   5.123  0.1699 -1.8713 -0.1048
 3422SOL    HW212261   5.064   2.040   5.135 -1.4378  0.0931  0.0255
 3423SOL     OW12262   8.829   6.608   5.070  0.3150 -0.6111  0.0358
 3423SOL    HW112263   8.804   6.685   5.020  0.2761 -0.7410 -0.1491
 3423SOL    HW212264   8.924   6.610   5.071  0.3241 -0.7617 -0.2927
 3424SOL     OW12265   1.551   2.100   7.203  0.2915 -0.2409 -0.3942
 3424SOL    HW112266   1.494   2.029   7.233  1.4481 -0.4841  1.3424
 3424SOL    HW212267   1.501   2.142   7.133 -1.6036 -1.0299  0.4096
 3425SOL     OW12268   2.358   8.623   7.535 -0.1188  0.4219 -0.4423
 3425SOL    HW112269   2.281   8.575   7.564 -0.6165  1.3972 -0.1013
 3425SOL    HW212270   2.432   8.568   7.559 -0.7047 -0.5999 -0.9076
 3426SOL     OW12271   1.924   8.831   6.767 -0.2845 -0.3498 -0.5119
 3426SOL    HW112272   1.987   8.814   6.838 -1.4830 -1.3299  0.3731
 3426SOL    HW212273   1.974   8.879   6.701  1.3848 -1.1091  0.1459
 3427SOL     OW12274   5.712   7.495   5.763 -0.3729  0.6672  0.4042
 3427SOL    HW112275   5.640   7.554   5.740  0.3458  0.8857 -1.3547
 3427SOL    HW212276   5.765   7.544   5.825  0.1477  1.8605 -0.9412
 3428SOL     OW12277   8.359   7.418   0.065 -0.2303  0.2202 -0.3201
 3428SOL    HW112278   8.309   7.396   0.143  0.8959  0.7911  0.5996
 3428SOL    HW212279   8.434   7.358   0.067  0.2561  0.8166 -0.4950
 3429SOL     OW12280   2.873   1.438   0.065 -0.5596  0.5290 -0.2975
 3429SOL    HW112281   2.847   1.425  -0.026 -0.8983  1.2244 -0.3135
 3429SOL    HW212282   2.955   1.487   0.060  0.6654 -1.4172 -0.2430
 3430SOL     OW12283   4.865   4.386   4.142 -0.6845 -0.3497 -0.0001
 3430SOL    HW112284   4.800   4.345   4.199  0.7616 -0.6568  1.4842
 3430SOL    HW212285   4.913   4.446   4.199  0.2918 -0.0660 -1.0784
 3431SOL     OW12286   4.089   1.799   7.291 -0.0494 -0.0107 -0.3390
 3431SOL    HW112287   4.032   1.750   7.350  0.2856  0.9802  0.8593
 3431SOL    HW212288   4.066   1.891   7.308  2.2176  0.4512  0.5450
 3432SOL     OW12289   3.607   1.469   6.832 -0.2586 -0.1225 -0.0758
 3432SOL    HW112290   3.554   1.503   6.904 -1.1628 -1.6224  0.0006
 3432SOL    HW212291   3.692   1.451   6.871 -0.3191  0.3506  0.2844
 3433SOL     OW12292   2.379   5.135   2.730 -0.1954 -0.3533  0.0900
 3433SOL    HW112293   2.318   5.207   2.713  0.9942  0.7833  0.3956
 3433SOL    HW212294   2.435   5.168   2.800  1.9952 -0.5477 -1.4669
 3434SOL     OW12295   6.306   4.441   4.036  0.4723  0.0848 -0.0666
 3434SOL    HW112296   6.301   4.527   4.078  0.7133  0.7038 -1.2401
 3434SOL    HW212297   6.396   4.412   4.050  0.6268  0.4099 -0.3631
 3435SOL     OW12298   3.178   7.837   3.511 -0.4787 -0.4563 -0.0009
 3435SOL    HW112299   3.239   7.899   3.473 -1.3271  0.0702 -0.5464
 3435SOL    HW212300   3.093   7.862   3.475 -1.3862  0.1985  2.3970
 3436SOL     OW12301   0.131   7.465   4.418 -0.4753 -0.1968 -0.0087
 3436SOL    HW112302   0.136   7.494   4.326 -0.8249 -0.9734 -0.2866
 3436SOL    HW212303   0.091   7.378   4.413 -0.8903 -0.0716  0.9211
 3437SOL     OW12304   5.009   4.144   4.415  0.0284 -0.4710 -0.1231
 3437SOL    HW112305   5.029   4.205   4.486  1.1514  0.3384 -1.0822
 3437SOL    HW212306   4.915   4.156   4.399  0.2860  1.3073 -0.5314
 3438SOL     OW12307   8.459   3.882   1.314  0.0082 -0.2793 -0.1561
 3438SOL    HW112308   8.549   3.881   1.347 -0.0556  0.3659  0.0519
 3438SOL    HW212309   8.412   3.940   1.374 -0.2446  0.4221 -1.0048
 3439SOL     OW12310   8.060   3.152   6.802 -0.1560 -0.2486  0.0428
 3439SOL    HW112311   7.991   3.118   6.859 -0.9294  1.6922  0.3464
 3439SOL    HW212312   8.014   3.182   6.724  0.2741  1.3458  0.3737
 3440SOL     OW12313   0.708   1.894   5.330 -0.5187  0.2177 -0.0962
 3440SOL    HW112314   0.733   1.823   5.271 -1.1673 -0.3033  0.2352
 3440SOL    HW212315   0.624   1.926   5.297 -0.0995  1.0224 -0.4017
 3441SOL     OW12316   7.998   0.603   6.809  0.6178  0.6988  0.5727
 3441SOL    HW112317   7.914   0.648   6.806  0.2418 -0.0002  0.3560
 3441SOL    HW212318   8.053   0.658   6.865 -0.0144  1.1050  0.8028
 3442SOL     OW12319   7.641   3.126   0.538  0.0042  0.4816  0.4221
 3442SOL    HW112320   7.646   3.084   0.452  1.4867  1.5792 -0.0554
 3442SOL    HW212321   7.641   3.220   0.519 -2.0588  0.7696  1.5265
 3443SOL     OW12322   8.452   0.542   3.639 -0.4521 -0.3036  0.8893
 3443SOL    HW112323   8.496   0.612   3.590 -1.3634 -1.0739 -1.1311
 3443SOL    HW212324   8.498   0.540   3.723  0.7378  1.5480  0.3524
 3444SOL     OW12325   0.620   5.736   7.476 -0.4317 -0.2679  0.4428
 3444SOL    HW112326   0.576   5.811   7.436 -1.2574 -1.3506 -0.7451
 3444SOL    HW212327   0.559   5.663   7.463 -0.1769 -0.9218  2.6303
 3445SOL     OW12328   4.054   0.451   4.591 -0.2728 -0.0368 -0.8170
 3445SOL    HW112329   4.059   0.373   4.536  1.7872 -0.4615 -0.1258
 3445SOL    HW212330   4.116   0.434   4.662 -1.1590  1.4607  0.3761
 3446SOL     OW12331   3.553   4.013   3.840 -0.4961 -0.6851  0.0700
 3446SOL    HW112332   3.613   3.942   3.865 -1.0337 -0.8499  0.9186
 3446SOL    HW212333   3.593   4.051   3.762  0.3473 -1.2483  0.2119
 3447SOL     OW12334   1.407   6.303   3.579 -0.1394 -0.0269  0.0434
 3447SOL    HW112335   1.341   6.323   3.645  1.0585  0.8901  1.0008
 3447SOL    HW212336   1.392   6.369   3.510 -1.6333 -1.2210 -0.8290
 3448SOL     OW12337   6.932   5.431   7.263  0.3119  0.4100 -0.0648
 3448SOL    HW112338   6.972   5.446   7.349  1.9982  0.3324 -0.8089
 3448SOL    HW212339   6.989   5.476   7.202 -1.3143  1.1547 -1.0980
 3449SOL     OW12340   5.469   8.170   2.954  0.6789  0.6850 -0.9654
 3449SOL    HW112341   5.533   8.193   2.887 -1.5754  1.3937 -2.9723
 3449SOL    HW212342   5.444   8.254   2.993 -1.7720  0.9477 -2.8780
 3450SOL     OW12343   2.929   8.182   3.876 -0.8043  0.1016 -0.2076
 3450SOL    HW112344   2.977   8.247   3.928 -0.9012  0.5151 -0.6318
 3450SOL    HW212345   2.854   8.159   3.930 -0.7732  0.3501 -0.0555
 3451SOL     OW12346   6.488   0.139   3.575 -0.0561  0.0251  0.1590
 3451SOL    HW112347   6.414   0.200   3.584  1.9282  2.8076 -0.8044
 3451SOL    HW212348   6.466   0.085   3.499 -0.3934  2.0310 -1.2542
 3452SOL     OW12349   0.675   1.599   6.987 -0.4655 -0.4553 -0.7085
 3452SOL    HW112350   0.664   1.661   7.059  1.6713  0.3610 -1.0194
 3452SOL    HW212351   0.591   1.555   6.980 -1.4439  1.0797  0.7703
 3453SOL     OW12352   8.394   6.781   1.547 -0.7042  0.0763 -0.2405
 3453SOL    HW112353   8.321   6.720   1.561 -0.2546 -0.2263  0.9712
 3453SOL    HW212354   8.355   6.855   1.502 -1.5093 -0.6107 -0.7029
 3454SOL     OW12355   5.960   8.288   7.865  0.5098 -0.3007 -0.5627
 3454SOL    HW112356   6.027   8.237   7.911  0.9252 -0.6148 -1.4882
 3454SOL    HW212357   6.004   8.370   7.841 -0.3597  0.8533  1.5447
 3455SOL     OW12358   7.922   3.992   7.256 -0.2088 -0.1293 -0.1653
 3455SOL    HW112359   7.830   4.018   7.262  0.2923  1.3966  2.3136
 3455SOL    HW212360   7.922   3.916   7.198 -2.7928  0.8356 -1.5858
 3456SOL     OW12361   1.522   2.279   3.856 -0.0766 -0.2509 -0.2950
 3456SOL    HW112362   1.539   2.364   3.815 -0.9300 -0.7060 -1.6799
 3456SOL    HW212363   1.429   2.283   3.880 -0.4018 -1.1377 -1.3146
 3457SOL     OW12364   8.232   7.732   5.835  0.0665  0.3369  0.1690
 3457SOL    HW112365   8.207   7.698   5.921  0.3317 -1.0346 -0.2693
 3457SOL    HW212366   8.239   7.654   5.780 -1.9440  1.3099 -1.6004
 3458SOL     OW12367   7.894   2.141   4.788 -0.3680  0.3364 -0.3509
 3458SOL    HW112368   7.836   2.086   4.735 -0.4255  0.4406 -0.3969
 3458SOL    HW212369   7.958   2.175   4.726 -0.5493  0.6122 -0.3924
 3459SOL     OW12370   8.403   0.801   2.265 -0.0520 -0.0587  0.1648
 3459SOL    HW112371   8.313   0.774   2.245  0.3976  0.0447 -2.3524
 3459SOL    HW212372   8.396   0.852   2.345 -2.1068 -0.7529  0.4837
 3460SOL     OW12373   3.598   5.819   3.636  0.1737  0.0126  0.0603
 3460SOL    HW112374   3.621   5.897   3.685 -0.2431 -0.5211  1.1429
 3460SOL    HW212375   3.679   5.769   3.629  0.0252 -0.4096  1.1645
 3461SOL     OW12376   0.648   5.872   6.894 -0.8568 -0.8596  0.6673
 3461SOL    HW112377   0.578   5.921   6.937 -0.9229 -0.6600  0.3369
 3461SOL    HW212378   0.605   5.824   6.824 -0.3135  1.4579 -1.3968
 3462SOL     OW12379   6.270   2.866   1.294  0.1246 -0.0754 -0.3871
 3462SOL    HW112380   6.213   2.938   1.266  0.1992  0.0564 -0.1966
 3462SOL    HW212381   6.209   2.798   1.324  0.0759  0.7312  1.4946
 3463SOL     OW12382   4.651   3.145   5.267 -0.3763  0.4972 -0.2537
 3463SOL    HW112383   4.590   3.078   5.236 -1.1212  1.1540 -0.2288
 3463SOL    HW212384   4.622   3.225   5.224 -0.3203  1.0664  0.7527
 3464SOL     OW12385   5.363   1.077   2.586 -0.0989  0.1343 -0.4324
 3464SOL    HW112386   5.283   1.129   2.585 -1.3876 -1.7325  0.2083
 3464SOL    HW212387   5.432   1.139   2.608 -1.3785  1.7596 -0.8313
 3465SOL     OW12388   8.361   5.553   6.668  0.4702  0.6244 -0.0956
 3465SOL    HW112389   8.306   5.629   6.689 -0.2145  0.1048  0.0094
 3465SOL    HW212390   8.352   5.543   6.573  0.4536  0.5865 -0.0895
 3466SOL     OW12391   0.411   3.067   2.019  0.5818  0.0793 -0.5195
 3466SOL    HW112392   0.357   3.046   2.095  1.5741  0.8601  0.4285
 3466SOL    HW212393   0.357   3.042   1.943 -0.9034  0.4023  0.3968
 3467SOL     OW12394   7.650   8.800   2.932  0.0283  0.8970 -0.5124
 3467SOL    HW112395   7.568   8.813   2.883 -1.3603 -1.7555  0.8876
 3467SOL    HW212396   7.632   8.726   2.989  3.1651  0.8119  0.5439
 3468SOL     OW12397   4.822   2.344   6.033  0.0644  0.8249 -0.0306
 3468SOL    HW112398   4.894   2.405   6.017 -0.7009  1.8411  0.2986
 3468SOL    HW212399   4.749   2.400   6.061 -0.6103 -0.2571  0.4307
 3469SOL     OW12400   2.868   8.154   7.865 -0.3342  0.2458 -0.5855
 3469SOL    HW112401   2.838   8.159   7.774 -0.2906 -1.2350 -0.7066
 3469SOL    HW212402   2.868   8.060   7.885 -0.4434  0.5588  0.9870
 3470SOL     OW12403   3.538   2.442   5.302  0.1956 -0.1619  0.0544
 3470SOL    HW112404   3.618   2.408   5.343 -1.1351 -1.5220  1.6889
 3470SOL    HW212405   3.497   2.364   5.262 -2.2504 -0.3848  2.6851
 3471SOL     OW12406   8.268   4.929   7.313  0.2028  0.1088  0.8925
 3471SOL    HW112407   8.237   4.882   7.390 -0.5873 -1.0310 -0.0757
 3471SOL    HW212408   8.349   4.884   7.288  1.4176  1.5703  2.0249
 3472SOL     OW12409   5.920   1.762   8.017  0.3617  0.5720 -0.0865
 3472SOL    HW112410   5.987   1.694   8.023 -0.5272 -0.2421  1.3943
 3472SOL    HW212411   5.955   1.834   8.069  0.4492  0.4819 -0.0190
 3473SOL     OW12412   0.728   2.701   6.565  0.3617  0.4782 -0.2200
 3473SOL    HW112413   0.800   2.723   6.624  0.7977 -0.1894 -0.4873
 3473SOL    HW212414   0.678   2.782   6.556  0.8619  0.8459  0.2717
 3474SOL     OW12415   5.405   6.838   5.479 -0.3231 -0.4776 -0.3334
 3474SOL    HW112416   5.436   6.870   5.394  1.2257 -1.8659 -0.3381
 3474SOL    HW212417   5.418   6.912   5.538  1.2049 -0.3606 -0.7639
 3475SOL     OW12418   8.786   4.371   6.211 -0.2820 -0.2328  0.1361
 3475SOL    HW112419   8.723   4.421   6.263 -0.7557 -0.6814  0.0064
 3475SOL    HW212420   8.767   4.396   6.120  0.8113  0.8605  0.1698
 3476SOL     OW12421   4.165   3.436   1.998  0.2137  0.5217  0.2995
 3476SOL    HW112422   4.202   3.408   2.082  1.5708  0.4710 -0.2872
 3476SOL    HW212423   4.134   3.356   1.957  1.7658  0.1834 -0.2748
 3477SOL     OW12424   8.869   7.714   4.220  0.4708  0.1982 -0.0615
 3477SOL    HW112425   8.893   7.626   4.190  0.9689  0.1187  0.5294
 3477SOL    HW212426   8.901   7.773   4.151 -1.1929 -0.1629 -1.1831
 3478SOL     OW12427   8.624   8.032   7.961 -0.2134 -0.3520  0.0059
 3478SOL    HW112428   8.719   8.020   7.959 -0.4821 -2.8422 -0.7718
 3478SOL    HW212429   8.599   8.045   7.869 -0.6170  0.5031  0.2264
 3479SOL     OW12430   4.943   4.554   8.308 -0.2023  0.3267 -0.6941
 3479SOL    HW112431   4.973   4.606   8.234 -0.0858  0.2312 -0.7143
 3479SOL    HW212432   4.861   4.595   8.334 -1.7634 -1.3170 -2.6738
 3480SOL     OW12433   6.189   4.662   1.333 -0.2098  0.2835 -0.0350
 3480SOL    HW112434   6.192   4.685   1.426  1.0344  1.0591 -0.2535
 3480SOL    HW212435   6.212   4.569   1.331 -0.8004  0.1141  0.4611
 3481SOL     OW12436   6.624   0.543   3.051 -0.1352  0.5142  0.4894
 3481SOL    HW112437   6.640   0.455   3.086  0.1139  0.2993 -0.1440
 3481SOL    HW212438   6.539   0.568   3.086  0.0524  0.2576  1.1389
 3482SOL     OW12439   4.441   7.203   6.944  0.3342  0.0247  0.0426
 3482SOL    HW112440   4.356   7.242   6.922  0.4974  1.7971  2.1396
 3482SOL    HW212441   4.424   7.152   7.024  1.1079 -0.1400  0.1122
 3483SOL     OW12442   5.857   3.316   5.013  0.4544  0.1619  0.1135
 3483SOL    HW112443   5.851   3.221   5.004  1.6495 -0.0642  1.4513
 3483SOL    HW212444   5.881   3.331   5.104  2.2642  1.6314 -0.5212
 3484SOL     OW12445   2.505   8.537   1.669  0.0467  0.1401  0.8322
 3484SOL    HW112446   2.528   8.576   1.754 -1.2559  1.0584  0.7977
 3484SOL    HW212447   2.417   8.568   1.652  0.5477  0.5736 -1.2228
 3485SOL     OW12448   5.893   0.455   0.101 -0.4453  0.1063  0.0952
 3485SOL    HW112449   5.866   0.520   0.036 -0.5912 -0.6291 -0.5968
 3485SOL    HW212450   5.817   0.398   0.112 -0.9142  1.0078  1.9540
 3486SOL     OW12451   0.293   2.096   5.982 -0.2523  0.1581 -0.0159
 3486SOL    HW112452   0.361   2.052   5.931 -1.6933 -1.9168 -0.2591
 3486SOL    HW212453   0.340   2.133   6.057  1.1855 -0.9722 -0.3161
 3487SOL     OW12454   2.832   4.290   2.436 -0.3701  0.1424  0.1750
 3487SOL    HW112455   2.908   4.320   2.387  0.1305  0.2444  0.9809
 3487SOL    HW212456   2.826   4.197   2.417  0.5336 -0.0629  0.8292
 3488SOL     OW12457   4.279   4.418   5.020  0.1029  0.0909  0.2899
 3488SOL    HW112458   4.293   4.324   5.029 -1.6089 -0.2214  0.0222
 3488SOL    HW212459   4.271   4.450   5.110 -1.5758 -0.4318  0.3600
 3489SOL     OW12460   5.191   6.310   2.760  0.0891 -0.3151 -0.1932
 3489SOL    HW112461   5.130   6.266   2.819 -0.4821  0.7175  0.0165
 3489SOL    HW212462   5.236   6.374   2.815  0.8483 -0.5567 -0.5080
 3490SOL     OW12463   1.353   3.368   8.086 -0.3973  0.0089 -0.1062
 3490SOL    HW112464   1.353   3.335   7.997 -1.6645  0.4302 -0.2816
 3490SOL    HW212465   1.387   3.458   8.078 -2.6247  0.8748 -0.5393
 3491SOL     OW12466   7.571   4.412   0.439 -0.5785 -0.1367  0.5720
 3491SOL    HW112467   7.503   4.425   0.505  0.2275 -2.2382  1.9329
 3491SOL    HW212468   7.633   4.483   0.455 -2.1005  1.4864 -0.3445
 3492SOL     OW12469   4.661   3.615   6.940  0.3761  0.0647 -0.3038
 3492SOL    HW112470   4.700   3.669   7.009  0.0727 -0.5100  0.3371
 3492SOL    HW212471   4.734   3.567   6.903  0.2345 -1.5647  1.3923
 3493SOL     OW12472   4.021   3.013   2.775 -0.5999 -0.2524  0.2494
 3493SOL    HW112473   3.985   3.067   2.705  1.0099 -0.3743 -0.7191
 3493SOL    HW212474   4.028   3.072   2.850  0.5119  0.7263 -0.6010
 3494SOL     OW12475   8.737   6.816   0.999  0.2639 -0.0746 -0.0700
 3494SOL    HW112476   8.682   6.795   1.074  2.4593 -1.9449  1.1179
 3494SOL    HW212477   8.774   6.902   1.020 -2.6069  1.5862 -1.2387
 3495SOL     OW12478   1.101   4.296   0.237  0.2949  0.0886  0.5374
 3495SOL    HW112479   1.062   4.210   0.249  0.2078 -0.1201 -0.9936
 3495SOL    HW212480   1.101   4.309   0.142  2.8354  0.6033  0.5294
 3496SOL     OW12481   5.736   1.548   8.866 -0.2242  0.2131 -0.5405
 3496SOL    HW112482   5.780   1.468   8.842 -0.7319 -0.1415 -0.3161
 3496SOL    HW212483   5.644   1.533   8.842 -0.0582  1.3651 -2.0857
 3497SOL     OW12484   1.167   1.670   8.343  0.0430  0.1371  0.2089
 3497SOL    HW112485   1.149   1.717   8.424  1.6195 -0.5907  1.0379
 3497SOL    HW212486   1.116   1.589   8.351  1.3054 -0.5956  1.1834
 3498SOL     OW12487   4.335   5.518   8.143 -0.8974  0.0215  0.1875
 3498SOL    HW112488   4.428   5.503   8.124 -0.8308  1.9358 -1.3338
 3498SOL    HW212489   4.305   5.436   8.181  1.4896 -0.5430  1.0347
 3499SOL     OW12490   5.826   4.274   7.727 -0.7976  0.4754  0.0382
 3499SOL    HW112491   5.857   4.188   7.755 -0.0371  0.4557 -0.7964
 3499SOL    HW212492   5.880   4.295   7.651 -0.2235  2.1593  0.8514
 3500SOL     OW12493   5.921   6.014   1.563  0.2997 -0.3114 -0.1561
 3500SOL    HW112494   6.003   6.058   1.537 -0.3861  1.3467  0.3968
 3500SOL    HW212495   5.913   5.942   1.500  2.6125 -1.0748  0.2950
 3501SOL     OW12496   8.535   1.761   5.223 -0.2314 -0.6304 -0.0586
 3501SOL    HW112497   8.544   1.670   5.251 -0.4486 -0.8471 -0.6772
 3501SOL    HW212498   8.450   1.788   5.257 -0.4985 -0.8960 -0.5024
 3502SOL     OW12499   5.967   4.973   0.260  0.2739 -0.0058 -0.3095
 3502SOL    HW112500   5.986   5.065   0.282 -0.9778  0.6713 -1.8277
 3502SOL    HW212501   6.052   4.936   0.236  0.7904  0.7735  0.2724
 3503SOL     OW12502   7.836   8.561   6.552 -0.3316 -0.2239  0.2800
 3503SOL    HW112503   7.924   8.547   6.585 -0.2298 -0.4370 -0.0771
 3503SOL    HW212504   7.801   8.632   6.606  0.7796  1.2900 -0.9002
 3504SOL     OW12505   4.689   4.235   6.303 -0.2461  0.5896 -0.8766
 3504SOL    HW112506   4.717   4.263   6.391 -1.4666 -0.7627 -0.0130
 3504SOL    HW212507   4.650   4.314   6.265 -1.0526  0.8337  0.3977
 3505SOL     OW12508   4.224   2.248   6.769 -0.7643  0.3770  0.3036
 3505SOL    HW112509   4.144   2.255   6.717 -0.8470 -0.8272  0.2419
 3505SOL    HW212510   4.193   2.239   6.859 -0.7762 -1.3090  0.1653
 3506SOL     OW12511   3.336   0.660   5.678  0.4140 -0.3239  0.2301
 3506SOL    HW112512   3.252   0.650   5.723  0.7703 -0.6244  0.8450
 3506SOL    HW212513   3.399   0.615   5.734  0.9127 -0.5060 -0.4591
 3507SOL     OW12514   3.336   7.462   7.356  0.7507  0.3597 -0.2830
 3507SOL    HW112515   3.365   7.548   7.328  0.8361  1.4938  2.8357
 3507SOL    HW212516   3.244   7.458   7.333  0.9255  0.9664 -1.1237
 3508SOL     OW12517   8.442   8.540   6.817 -0.5848 -0.3507 -0.3081
 3508SOL    HW112518   8.536   8.559   6.819 -0.4069 -1.2165  0.2124
 3508SOL    HW212519   8.417   8.555   6.726 -0.1367  0.7333 -0.2703
 3509SOL     OW12520   7.884   3.041   6.988  0.0402  0.1165 -0.2716
 3509SOL    HW112521   7.895   2.993   7.069 -0.5372 -1.0834 -0.8830
 3509SOL    HW212522   7.879   3.133   7.015  0.3617 -0.2208  0.9871
 3510SOL     OW12523   3.481   7.591   1.367 -0.2538  0.7755 -0.0730
 3510SOL    HW112524   3.472   7.652   1.441  2.6875  1.1719  0.0632
 3510SOL    HW212525   3.515   7.511   1.406  5.6317  2.2853 -1.1511
 3511SOL     OW12526   1.093   7.735   0.248  0.3149  0.1412 -0.2497
 3511SOL    HW112527   1.167   7.781   0.287  0.6613 -0.8554  0.3025
 3511SOL    HW212528   1.133   7.677   0.183 -0.0376  0.0249 -0.3633
 3512SOL     OW12529   1.310   2.112   2.071  0.4051  0.0768  0.7404
 3512SOL    HW112530   1.318   2.175   2.143 -1.4416  0.4751  0.6445
 3512SOL    HW212531   1.244   2.150   2.013 -1.2890 -2.2266  1.0269
 3513SOL     OW12532   2.312   1.505   8.122  0.6943 -0.0642 -0.5768
 3513SOL    HW112533   2.408   1.513   8.124  0.5370  2.6172 -0.1278
 3513SOL    HW212534   2.283   1.581   8.071 -1.2686  0.3486  1.0370
 3514SOL     OW12535   4.066   0.585   2.808 -0.0011  0.4546  0.5434
 3514SOL    HW112536   4.037   0.509   2.858  0.0471 -0.2956 -0.5619
 3514SOL    HW212537   3.986   0.619   2.768  0.0709  0.6326  0.5499
 3515SOL     OW12538   4.302   0.468   5.687 -0.2445  0.9103 -0.3887
 3515SOL    HW112539   4.324   0.560   5.677 -0.4654  1.0132  0.0380
 3515SOL    HW212540   4.207   0.464   5.679 -0.0859  0.3953 -2.7477
 3516SOL     OW12541   3.451   4.981   3.229 -0.1473 -0.2761  0.2819
 3516SOL    HW112542   3.449   4.889   3.203  1.3740  0.2543 -2.0071
 3516SOL    HW212543   3.540   4.994   3.263  0.4634  0.8279 -1.6105
 3517SOL     OW12544   0.882   2.428   0.612 -0.6288  0.0921 -0.1397
 3517SOL    HW112545   0.948   2.497   0.602  0.6846 -0.8851  1.2841
 3517SOL    HW212546   0.822   2.441   0.538 -0.9105  3.2208  0.5291
 3518SOL     OW12547   0.652   0.765   0.179  0.2023 -0.3450  0.5191
 3518SOL    HW112548   0.720   0.712   0.221  1.9156  1.8224  0.6982
 3518SOL    HW212549   0.602   0.802   0.252  1.4529  1.2451  0.6354
 3519SOL     OW12550   5.395   8.146   5.152  0.2161  0.1000  0.7219
 3519SOL    HW112551   5.399   8.111   5.241 -2.5561 -0.2433  0.7804
 3519SOL    HW212552   5.310   8.187   5.145  0.4916  0.4366 -1.6802
 3520SOL     OW12553   6.479   4.236   4.688  0.2080 -0.1371  0.4016
 3520SOL    HW112554   6.427   4.171   4.735  1.3029 -2.6609 -1.6385
 3520SOL    HW212555   6.531   4.279   4.756 -1.8337 -0.0895  2.0210
 3521SOL     OW12556   2.537   0.372   0.215 -0.2221 -0.6008  0.0725
 3521SOL    HW112557   2.505   0.413   0.295  1.5692  2.1221 -0.5041
 3521SOL    HW212558   2.618   0.328   0.241 -0.6508 -1.3804  0.1143
 3522SOL     OW12559   1.411   2.962   4.446 -0.0333 -0.2494  0.1707
 3522SOL    HW112560   1.360   3.022   4.501 -2.2836 -2.4492  0.6915
 3522SOL    HW212561   1.368   2.966   4.361 -1.0571 -1.9841  0.5575
 3523SOL     OW12562   3.299   4.972   7.255  0.4829  0.5323 -0.4983
 3523SOL    HW112563   3.392   4.970   7.280  0.4199 -2.0931 -0.2134
 3523SOL    HW212564   3.297   4.931   7.169 -0.3517  1.2104 -0.8076
 3524SOL     OW12565   5.626   2.558   7.021  1.2453  0.1059  0.5724
 3524SOL    HW112566   5.577   2.610   7.084  2.2616 -1.3277  2.6868
 3524SOL    HW212567   5.702   2.612   6.999  0.9716  0.5583  0.7208
 3525SOL     OW12568   6.221   2.885   3.804 -0.5697  0.0133  0.1617
 3525SOL    HW112569   6.193   2.805   3.848 -0.5706 -0.0950 -0.0364
 3525SOL    HW212570   6.268   2.935   3.872 -0.1744 -0.3571  0.1666
 3526SOL     OW12571   0.395   3.253   5.918  0.3049  0.2450  0.0206
 3526SOL    HW112572   0.432   3.209   5.841  0.7628  0.1617  0.2822
 3526SOL    HW212573   0.369   3.182   5.976  0.2094  0.3087  0.0555
 3527SOL     OW12574   2.253   4.678   7.395  0.0241 -0.4849  0.1939
 3527SOL    HW112575   2.197   4.753   7.418  0.9362  0.7173 -1.2916
 3527SOL    HW212576   2.258   4.681   7.299 -0.3685 -2.8385  0.0425
 3528SOL     OW12577   2.941   2.167   4.123 -0.2098  0.4945 -0.8308
 3528SOL    HW112578   2.872   2.111   4.088  0.3213  0.4045 -1.7448
 3528SOL    HW212579   3.023   2.121   4.104  0.1186  0.5337  0.3585
 3529SOL     OW12580   8.044   8.602   8.461 -0.0085  0.7555 -0.4873
 3529SOL    HW112581   8.111   8.642   8.517 -0.2023  1.5229 -0.7938
 3529SOL    HW212582   8.066   8.632   8.373  0.0497 -0.1143 -0.7747
 3530SOL     OW12583   0.952   7.896   7.418 -0.8599 -0.3031  0.1296
 3530SOL    HW112584   0.988   7.815   7.454 -1.4417 -0.1910  0.9862
 3530SOL    HW212585   0.942   7.953   7.494 -2.4247 -0.1807 -0.1407
 3531SOL     OW12586   5.381   3.804   6.736 -0.1327  0.5127  0.1511
 3531SOL    HW112587   5.404   3.888   6.777 -0.1303  1.1080 -1.0366
 3531SOL    HW212588   5.442   3.742   6.774  2.5243  1.7723 -1.7643
 3532SOL     OW12589   3.860   7.605   3.686  0.0897 -0.5945  0.2961
 3532SOL    HW112590   3.770   7.589   3.660  0.6206  0.5541 -2.5985
 3532SOL    HW212591   3.879   7.693   3.654  1.7279 -0.0717  2.4694
 3533SOL     OW12592   4.943   1.032   6.061  0.1063 -0.5361  0.2575
 3533SOL    HW112593   4.891   1.014   6.139 -2.0064 -1.3405 -1.2221
 3533SOL    HW212594   4.905   1.113   6.025  1.3116  0.0465  0.2490
 3534SOL     OW12595   2.005   5.990   7.774  0.1483 -0.1657  0.0481
 3534SOL    HW112596   2.084   5.950   7.738 -0.8412 -1.1300 -1.1705
 3534SOL    HW212597   2.012   6.082   7.750  0.4253 -0.4356 -0.9902
 3535SOL     OW12598   2.253   3.093   2.198  0.1728 -0.8521 -0.2189
 3535SOL    HW112599   2.326   3.134   2.244 -0.2482 -1.3449  0.9290
 3535SOL    HW212600   2.294   3.023   2.146  0.4044 -2.0268  1.4778
 3536SOL     OW12601   3.367   2.995   1.553 -0.2094 -0.2615 -0.2890
 3536SOL    HW112602   3.317   3.052   1.611 -0.7557 -0.2095 -0.7944
 3536SOL    HW212603   3.354   2.907   1.588  0.3091 -0.1273  0.2598
 3537SOL     OW12604   5.057   3.653   1.508 -0.0232 -0.1247 -0.8530
 3537SOL    HW112605   5.019   3.665   1.595  3.2180  3.2631  0.3743
 3537SOL    HW212606   5.118   3.580   1.518 -1.1427 -1.1006 -0.9399
 3538SOL     OW12607   3.612   0.670   3.861  0.0788  0.0316 -0.0279
 3538SOL    HW112608   3.632   0.752   3.817 -1.1955 -0.5542 -1.8128
 3538SOL    HW212609   3.676   0.607   3.828 -0.3806 -0.2176 -0.4701
 3539SOL     OW12610   6.181   1.728   2.458 -0.5759  0.2537  0.1380
 3539SOL    HW112611   6.091   1.697   2.467 -0.3559 -0.7644 -0.9160
 3539SOL    HW212612   6.234   1.649   2.468  0.3044  1.0173  1.9740
 3540SOL     OW12613   8.461   2.024   5.098 -0.5237  0.4053  0.0309
 3540SOL    HW112614   8.541   2.075   5.092 -1.4567  1.9664  0.2227
 3540SOL    HW212615   8.483   1.939   5.060  1.1105  0.9101 -0.2072
 3541SOL     OW12616   3.545   6.173   4.167 -0.2533 -0.3103  0.0843
 3541SOL    HW112617   3.473   6.230   4.194 -0.0686 -0.1064  0.1534
 3541SOL    HW212618   3.518   6.137   4.082  0.8024  2.0170 -1.3212
 3542SOL     OW12619   5.391   3.667   5.998  0.2328  0.3443 -0.2349
 3542SOL    HW112620   5.360   3.704   5.915 -2.2326 -0.9092  0.0360
 3542SOL    HW212621   5.369   3.733   6.064  1.4673  0.9944 -0.4478
 3543SOL     OW12622   5.655   4.777   3.356  0.2905 -0.6585 -0.2498
 3543SOL    HW112623   5.635   4.684   3.360 -0.4755 -0.4754  2.1415
 3543SOL    HW212624   5.577   4.817   3.320 -0.7355 -0.7014  1.7588
 3544SOL     OW12625   1.418   7.721   6.231 -0.2408 -0.0637 -0.1500
 3544SOL    HW112626   1.466   7.639   6.238 -0.3901 -0.2276 -0.9867
 3544SOL    HW212627   1.326   7.696   6.242 -0.4538 -0.2793 -2.0697
 3545SOL     OW12628   4.640   5.196   3.391  0.5522  0.5045 -0.9607
 3545SOL    HW112629   4.685   5.128   3.342 -0.3388 -1.5901  0.9384
 3545SOL    HW212630   4.685   5.198   3.476 -0.6738  0.8916 -0.2942
 3546SOL     OW12631   2.462   6.665   4.668  0.1108  0.3417 -0.0709
 3546SOL    HW112632   2.536   6.689   4.724 -0.3804  0.2776  0.6187
 3546SOL    HW212633   2.388   6.713   4.704 -0.4764 -0.6954  0.1403
 3547SOL     OW12634   5.747   5.819   8.317 -0.6360  0.2045  0.3052
 3547SOL    HW112635   5.777   5.800   8.406  0.7418  0.3285 -0.1259
 3547SOL    HW212636   5.651   5.820   8.325 -0.6668 -2.1343  1.3182
 3548SOL     OW12637   6.947   6.062   6.776  0.7331  0.2080  0.7857
 3548SOL    HW112638   6.852   6.053   6.769  0.8167  0.6583 -1.6988
 3548SOL    HW212639   6.968   6.138   6.723  2.6991 -1.2481 -0.6508
 3549SOL     OW12640   1.460   1.312   6.311 -0.2042 -0.6900  0.0022
 3549SOL    HW112641   1.516   1.279   6.240  1.6887  0.4301  0.8782
 3549SOL    HW212642   1.403   1.376   6.268  1.2335  0.3176 -0.4878
 3550SOL     OW12643   5.911   5.278   0.040 -0.4560  0.0084  0.3279
 3550SOL    HW112644   5.942   5.240  -0.043 -0.4485 -0.4393  0.5310
 3550SOL    HW212645   5.849   5.345   0.014 -2.6698 -2.0364 -0.0062
 3551SOL     OW12646   1.822   4.957   5.718 -0.1985  0.7971 -0.3164
 3551SOL    HW112647   1.847   4.874   5.757 -1.2541  1.1879  1.2842
 3551SOL    HW212648   1.827   4.942   5.623 -0.3018 -1.0497 -0.0552
 3552SOL     OW12649   8.047   1.833   2.874  0.3021 -0.5195 -0.4760
 3552SOL    HW112650   8.035   1.838   2.779  1.8837 -0.5132 -0.6965
 3552SOL    HW212651   8.046   1.924   2.903 -0.1486 -0.5196 -0.4875
 3553SOL     OW12652   4.564   2.251   0.590 -0.1330 -0.4284  0.2056
 3553SOL    HW112653   4.653   2.226   0.566  0.5400 -0.4483  2.5275
 3553SOL    HW212654   4.520   2.169   0.611 -0.4161 -0.3435 -0.0449
 3554SOL     OW12655   0.898   7.264   6.683  0.0101  0.4633 -0.4505
 3554SOL    HW112656   0.803   7.259   6.683 -0.2267  3.3398  0.8399
 3554SOL    HW212657   0.925   7.187   6.734 -1.4903 -1.0072 -1.7396
 3555SOL     OW12658   5.446   4.594   3.119 -0.0289 -0.4227  0.0744
 3555SOL    HW112659   5.525   4.542   3.131  0.0696  0.0400  1.6948
 3555SOL    HW212660   5.477   4.675   3.078  0.6473  0.4344  2.1494
 3556SOL     OW12661   1.451   1.174   2.129 -0.2283 -0.1020 -0.0210
 3556SOL    HW112662   1.533   1.125   2.128  0.7064  1.3610 -1.9476
 3556SOL    HW212663   1.433   1.189   2.222  2.1406  0.2265  0.4497
 3557SOL     OW12664   4.185   4.662   5.655 -0.0628  0.0660 -0.2114
 3557SOL    HW112665   4.185   4.751   5.691 -2.7752 -0.5710  1.7561
 3557SOL    HW212666   4.196   4.605   5.732 -3.8752 -1.3163 -0.4435
 3558SOL     OW12667   5.936   7.854   8.841  0.0735 -0.5695  0.0593
 3558SOL    HW112668   5.954   7.908   8.765 -0.7476 -0.5019 -0.1029
 3558SOL    HW212669   5.933   7.764   8.807 -3.6039 -0.3206 -0.7258
 3559SOL     OW12670   3.674   8.710   0.801 -0.2176 -0.0013 -0.2502
 3559SOL    HW112671   3.752   8.663   0.830  0.0840 -0.0592 -1.1288
 3559SOL    HW212672   3.672   8.698   0.706 -1.1414  0.2388 -0.2748
 3560SOL     OW12673   2.932   5.057   6.612 -0.7072  0.0005 -0.3809
 3560SOL    HW112674   2.892   5.055   6.699 -1.0801 -0.1560 -0.5551
 3560SOL    HW212675   2.878   5.117   6.561 -1.3770 -1.0453 -0.9328
 3561SOL     OW12676   0.597   7.797   3.338  0.3715  0.0659 -0.6409
 3561SOL    HW112677   0.630   7.881   3.369  0.8430 -0.1630 -0.5069
 3561SOL    HW212678   0.566   7.752   3.416 -1.0220  0.5962 -0.8627
 3562SOL     OW12679   1.628   2.854   0.380 -0.0771 -0.2959 -0.1657
 3562SOL    HW112680   1.581   2.935   0.398  2.8406  1.5995 -0.4761
 3562SOL    HW212681   1.571   2.805   0.321 -2.2603  1.1268  0.6767
 3563SOL     OW12682   1.927   6.238   2.484  0.6758 -0.0196  0.0727
 3563SOL    HW112683   1.973   6.322   2.486 -0.8748  0.8692  0.2875
 3563SOL    HW212684   1.981   6.180   2.537  0.7221  1.4460  1.7530
 3564SOL     OW12685   6.122   3.832   3.101  0.3288 -0.8104 -0.6307
 3564SOL    HW112686   6.159   3.745   3.116  0.4140 -0.8563 -1.0838
 3564SOL    HW212687   6.072   3.823   3.020  1.6514 -0.0556 -1.5694
 3565SOL     OW12688   0.489   4.040   2.342  0.8022  0.3807  0.2340
 3565SOL    HW112689   0.549   3.972   2.311  0.9813  0.3392  0.6589
 3565SOL    HW212690   0.485   4.104   2.271 -0.1950 -0.5925 -0.6168
 3566SOL     OW12691   4.061   0.247   4.841 -0.0924  0.4910  0.1114
 3566SOL    HW112692   4.084   0.335   4.871  0.6514  1.3582 -2.6671
 3566SOL    HW212693   3.965   0.249   4.836 -0.0262  1.9761 -1.9380
 3567SOL     OW12694   3.347   2.532   4.920 -0.7046 -0.2317 -0.7653
 3567SOL    HW112695   3.335   2.555   5.012  1.7438 -0.9306 -0.2010
 3567SOL    HW212696   3.365   2.615   4.876 -1.3667  0.0422 -0.5241
 3568SOL     OW12697   4.340   6.102   1.798 -0.3266  0.2057  0.1964
 3568SOL    HW112698   4.336   6.040   1.725 -2.1184  1.3899 -0.7860
 3568SOL    HW212699   4.372   6.050   1.872 -1.8995 -1.9614 -0.5374
 3569SOL     OW12700   6.898   3.658   6.412  0.1363 -0.5031 -0.0666
 3569SOL    HW112701   6.939   3.576   6.383 -0.7579 -1.1749  0.5200
 3569SOL    HW212702   6.874   3.702   6.330  3.1797  0.5855 -0.5059
 3570SOL     OW12703   0.024   0.139   2.554 -0.3699 -0.7356  0.0422
 3570SOL    HW112704   0.005   0.112   2.644 -1.7098  1.8312  0.6337
 3570SOL    HW212705  -0.059   0.176   2.523  1.1677  2.6606 -0.5318
 3571SOL     OW12706   3.271   0.853   4.068 -0.1743  0.2477  0.3185
 3571SOL    HW112707   3.351   0.887   4.028  0.0179  2.0117  2.0707
 3571SOL    HW212708   3.202   0.913   4.040 -1.0606 -1.4898 -1.5139
 3572SOL     OW12709   8.487   4.975   1.730 -0.5113 -0.2921 -0.4958
 3572SOL    HW112710   8.423   4.992   1.660 -0.1529 -1.1324 -1.0415
 3572SOL    HW212711   8.549   5.048   1.724 -1.1465  0.2806 -0.2629
 3573SOL     OW12712   1.474   4.771   0.161 -0.1066 -0.3783 -0.2050
 3573SOL    HW112713   1.471   4.769   0.256  2.2563 -1.0475 -0.0731
 3573SOL    HW212714   1.432   4.854   0.137  0.3680  0.4043  1.5041
 3574SOL     OW12715   4.913   2.981   4.949 -0.2841  0.0275  0.7087
 3574SOL    HW112716   4.905   2.953   5.040  1.0426 -1.1691  0.4787
 3574SOL    HW212717   4.972   3.056   4.952  1.7222 -1.4825  0.6221
 3575SOL     OW12718   6.538   6.315   4.415  0.2324 -0.7596  0.4026
 3575SOL    HW112719   6.530   6.329   4.321  0.4746 -0.7215  0.3887
 3575SOL    HW212720   6.466   6.367   4.452  1.9180  1.6868  0.4459
 3576SOL     OW12721   4.551   1.589   5.995 -0.0821 -0.2504 -0.4462
 3576SOL    HW112722   4.575   1.590   6.088  1.5196 -0.6059 -0.8192
 3576SOL    HW212723   4.634   1.607   5.949 -0.8756  0.0999 -1.8040
 3577SOL     OW12724   6.895   8.500   0.461  0.0060  0.1961 -0.7947
 3577SOL    HW112725   6.985   8.472   0.441  0.8003  0.8590  1.5251
 3577SOL    HW212726   6.840   8.431   0.424  1.5510 -1.1016 -0.8042
 3578SOL     OW12727   1.301   7.118   5.837  0.3418 -0.1693 -0.0635
 3578SOL    HW112728   1.369   7.064   5.875 -0.4295 -1.5407 -0.5537
 3578SOL    HW212729   1.228   7.113   5.898  0.5004  0.9181  0.2367
 3579SOL     OW12730   2.107   5.848   7.084 -0.0381 -0.4548 -0.1098
 3579SOL    HW112731   2.057   5.881   7.009  1.8735  0.7039 -0.9638
 3579SOL    HW212732   2.159   5.776   7.049 -0.0464 -0.7168  0.4097
 3580SOL     OW12733   8.322   7.497   4.869  0.4696  0.0670 -0.3651
 3580SOL    HW112734   8.350   7.464   4.784  2.7900  0.7104  0.0916
 3580SOL    HW212735   8.298   7.588   4.852  0.3911  0.0329 -0.4364
 3581SOL     OW12736   1.625   7.830   2.240  0.2267  0.6571 -0.5990
 3581SOL    HW112737   1.535   7.835   2.209 -0.1861 -1.8790 -0.0057
 3581SOL    HW212738   1.624   7.880   2.322 -0.2917  1.7194 -1.2270
 3582SOL     OW12739   8.594   8.772   6.771 -0.5461  0.2240  0.2731
 3582SOL    HW112740   8.502   8.773   6.800 -0.9142 -2.1663 -0.5726
 3582SOL    HW212741   8.644   8.778   6.853 -1.4218  1.4723  0.7542
 3583SOL     OW12742   2.566   7.157   5.313 -0.1532 -0.2957  0.4217
 3583SOL    HW112743   2.511   7.128   5.240 -0.1183 -0.1640  0.3429
 3583SOL    HW212744   2.592   7.076   5.357 -1.0165 -0.3200  0.9020
 3584SOL     OW12745   1.627   4.798   3.523 -0.0837  0.8851  0.6931
 3584SOL    HW112746   1.688   4.776   3.593 -0.2718 -1.6968  0.1132
 3584SOL    HW212747   1.665   4.760   3.444 -0.7215  2.2813 -0.3516
 3585SOL     OW12748   5.843   8.292   3.253 -0.3775  0.0600  0.1525
 3585SOL    HW112749   5.926   8.253   3.280 -0.3507 -0.4145 -0.5996
 3585SOL    HW212750   5.777   8.226   3.271 -1.2108  1.6883  4.2036
 3586SOL     OW12751   7.876   8.376   7.879  0.3308 -0.5235 -0.6609
 3586SOL    HW112752   7.896   8.466   7.853  0.2595 -0.4399 -0.4277
 3586SOL    HW212753   7.790   8.359   7.842 -0.0520 -0.1850  0.0486
 3587SOL     OW12754   1.918   1.270   2.564  0.6454 -0.2040  0.6597
 3587SOL    HW112755   1.932   1.361   2.591 -0.0839  0.3225 -0.6801
 3587SOL    HW212756   1.829   1.250   2.594  0.9679 -0.6401  1.3512
 3588SOL     OW12757   6.283   8.714   6.355  0.7302  0.0719 -0.0956
 3588SOL    HW112758   6.326   8.792   6.391 -1.3940  2.4721 -2.3524
 3588SOL    HW212759   6.308   8.713   6.263  2.4664 -3.3458  0.2179
 3589SOL     OW12760   8.194   5.868   0.076 -0.0325  0.7521  0.0215
 3589SOL    HW112761   8.281   5.854   0.114 -0.1424  0.8450  0.3094
 3589SOL    HW212762   8.202   5.839  -0.015 -0.0498 -0.4843  0.3967
 3590SOL     OW12763   6.977   7.460   4.241 -1.2867 -0.2209  0.0021
 3590SOL    HW112764   7.039   7.425   4.176  0.1678  2.9663 -0.5228
 3590SOL    HW212765   6.891   7.433   4.210 -0.5054 -0.1786 -2.3520
 3591SOL     OW12766   4.887   8.005   0.676 -0.3595 -0.4882  0.1111
 3591SOL    HW112767   4.947   7.979   0.606  0.1082  0.2209  0.2384
 3591SOL    HW212768   4.935   7.984   0.757 -0.6027 -0.6365  0.2176
 3592SOL     OW12769   8.465   3.637   5.683  0.3177  0.6905  0.1305
 3592SOL    HW112770   8.448   3.731   5.683 -2.6165  0.2452  1.2961
 3592SOL    HW212771   8.455   3.610   5.774  0.5451 -0.8500 -0.2634
 3593SOL     OW12772   8.813   0.217   3.052 -0.5116  0.3767  0.3693
 3593SOL    HW112773   8.764   0.299   3.044 -0.2571  1.0768  4.0124
 3593SOL    HW212774   8.768   0.156   2.994  0.4193  3.4050 -4.0453
 3594SOL     OW12775   6.089   3.333   8.444 -0.1056  0.2470 -0.1771
 3594SOL    HW112776   6.093   3.389   8.366  0.6120  0.0351 -0.3041
 3594SOL    HW212777   6.083   3.245   8.409 -0.5689  0.2002  0.0187
 3595SOL     OW12778   3.379   6.849   0.950  0.0117 -0.0619  0.1444
 3595SOL    HW112779   3.303   6.892   0.910 -0.7560 -0.0429  1.5758
 3595SOL    HW212780   3.359   6.756   0.946  1.7375 -0.4562 -3.0840
 3596SOL     OW12781   6.724   2.543   5.262  0.4884  0.6495  0.3214
 3596SOL    HW112782   6.647   2.486   5.257  0.9265  0.0204  0.6466
 3596SOL    HW212783   6.692   2.622   5.305  0.3835 -0.2581  1.9743
 3597SOL     OW12784   0.748   4.642   4.484 -0.3576 -0.3394  0.1663
 3597SOL    HW112785   0.717   4.728   4.459 -1.2304 -0.9324 -0.8930
 3597SOL    HW212786   0.698   4.620   4.562  0.7751  0.6076  1.1943
 3598SOL     OW12787   2.388   1.853   3.588  0.0066  0.1233 -0.2016
 3598SOL    HW112788   2.365   1.942   3.614 -1.0797  0.8138 -3.1374
 3598SOL    HW212789   2.307   1.803   3.597 -0.4849  0.4577 -2.3542
 3599SOL     OW12790   1.187   5.319   6.552  0.2967  0.2963 -0.2228
 3599SOL    HW112791   1.275   5.358   6.548  0.2658  0.3782 -0.0740
 3599SOL    HW212792   1.135   5.382   6.600 -0.0132  0.5703 -0.9027
 3600SOL     OW12793   3.086   1.758   0.982  0.1493 -0.2134 -0.1468
 3600SOL    HW112794   3.021   1.691   1.001  0.4055 -0.4683 -0.1711
 3600SOL    HW212795   3.160   1.711   0.943  0.8374 -0.1109  0.9634
 3601SOL     OW12796   0.213   8.623   6.486 -0.0439  0.2410  0.5743
 3601SOL    HW112797   0.292   8.589   6.444  0.6431  0.7497  1.4047
 3601SOL    HW212798   0.154   8.549   6.490  0.3963 -0.1578 -0.0461
 3602SOL     OW12799   0.963   7.212   3.249 -0.0911  0.3338  0.5338
 3602SOL    HW112800   1.017   7.270   3.195 -0.6923  0.9203  0.5440
 3602SOL    HW212801   0.989   7.231   3.339 -0.4262  0.7384  0.5479
 3603SOL     OW12802   8.556   5.966   4.329 -0.3292 -0.0255 -0.4113
 3603SOL    HW112803   8.604   5.913   4.265 -0.5924  0.3723 -0.9493
 3603SOL    HW212804   8.618   6.033   4.356  0.0613 -0.7023  0.4035
 3604SOL     OW12805   1.052   1.338   1.375 -0.1539 -0.2118 -0.1727
 3604SOL    HW112806   1.085   1.294   1.454 -1.6120  0.9998  1.1709
 3604SOL    HW212807   1.106   1.417   1.368  2.9696 -2.3056 -3.0016
 3605SOL     OW12808   8.097   0.783   1.265  0.7266  0.1659 -0.4495
 3605SOL    HW112809   8.138   0.717   1.208  2.3387  0.0794  0.7507
 3605SOL    HW212810   8.171   0.827   1.308 -0.4084  1.0294  0.6879
 3606SOL     OW12811   0.139   2.300   6.770 -0.1059  0.5486 -0.1796
 3606SOL    HW112812   0.202   2.267   6.707  0.0660 -0.0893  0.3177
 3606SOL    HW212813   0.135   2.394   6.753 -1.5652  0.1317 -2.4696
 3607SOL     OW12814   7.994   7.730   2.998 -0.2406 -0.6676  0.0079
 3607SOL    HW112815   8.016   7.712   2.906  1.7225  0.4923  0.1958
 3607SOL    HW212816   7.908   7.770   2.995  0.5255  1.0107 -1.5507
 3608SOL     OW12817   2.223   1.942   5.173  0.2770  0.5776  0.3760
 3608SOL    HW112818   2.200   1.858   5.214 -0.4179  0.6997  0.2444
 3608SOL    HW212819   2.234   1.921   5.080 -1.2311  0.8629  0.1082
 3609SOL     OW12820   3.201   0.186   5.423 -0.6222  0.3407  0.1045
 3609SOL    HW112821   3.246   0.123   5.479 -0.9840  1.5576  1.8449
 3609SOL    HW212822   3.113   0.193   5.461 -1.2673  0.3645 -1.3204
 3610SOL     OW12823   5.238   2.903   5.505 -0.0475  1.0466  0.0049
 3610SOL    HW112824   5.151   2.931   5.534 -0.5366 -0.8392  0.5292
 3610SOL    HW212825   5.255   2.954   5.426 -3.7986 -1.8499 -3.0645
 3611SOL     OW12826   7.863   1.843   6.193 -0.0483 -0.1842 -0.1677
 3611SOL    HW112827   7.845   1.853   6.286 -0.7471 -0.7494 -0.2367
 3611SOL    HW212828   7.927   1.912   6.173 -0.2474  0.2329  0.6214
 3612SOL     OW12829   7.943   4.853   2.924 -0.5137 -0.2530  0.2926
 3612SOL    HW112830   7.992   4.835   3.004  1.7267  0.2918 -0.8682
 3612SOL    HW212831   7.974   4.939   2.895  0.2947 -1.2814 -2.1827
 3613SOL     OW12832   1.117   0.389   6.278 -0.1520 -0.0845 -0.2594
 3613SOL    HW112833   1.027   0.420   6.284 -0.6344 -1.4721  0.2053
 3613SOL    HW212834   1.121   0.316   6.341  0.4754 -1.8643 -2.2301
 3614SOL     OW12835   3.101   1.495   3.443  0.4662  0.4405 -0.0174
 3614SOL    HW112836   3.142   1.424   3.493  0.3495  0.8667  0.7000
 3614SOL    HW212837   3.066   1.453   3.364 -0.0741 -0.3934  0.6578
 3615SOL     OW12838   5.250   6.540   5.713  0.3466  0.3364 -0.1463
 3615SOL    HW112839   5.310   6.494   5.654 -0.0411 -0.5114  0.1190
 3615SOL    HW212840   5.194   6.591   5.654 -0.1573 -0.6439 -0.5306
 3616SOL     OW12841   6.096   7.653   1.384  0.2380  0.1645 -0.1889
 3616SOL    HW112842   6.055   7.574   1.350  0.9841  0.2145 -1.2485
 3616SOL    HW212843   6.023   7.706   1.417 -0.3411 -0.6189 -0.1948
 3617SOL     OW12844   7.753   4.126   8.417 -0.1178  0.4799  0.1419
 3617SOL    HW112845   7.765   4.210   8.372  0.0963  0.2443 -0.2485
 3617SOL    HW212846   7.831   4.075   8.393  0.0419  0.3758  0.8427
 3618SOL     OW12847   7.429   6.280   6.228  0.5259  0.0825  0.9248
 3618SOL    HW112848   7.387   6.366   6.229  1.0712  0.4521 -1.6616
 3618SOL    HW212849   7.389   6.234   6.302 -1.6683  1.6647  0.8409
 3619SOL     OW12850   7.182   1.789   3.553  0.5426 -0.3647  0.0514
 3619SOL    HW112851   7.179   1.694   3.559 -1.7098 -0.3218  0.2999
 3619SOL    HW212852   7.113   1.820   3.611  1.2911  1.4465  0.0562
 3620SOL     OW12853   7.240   3.372   3.180  0.0768 -0.5857 -0.0813
 3620SOL    HW112854   7.190   3.391   3.259  0.4877 -1.2432  0.3518
 3620SOL    HW212855   7.176   3.371   3.110 -0.1297  1.1750  0.0409
 3621SOL     OW12856   8.263   0.370   7.365  0.5176  0.0949 -0.4494
 3621SOL    HW112857   8.292   0.353   7.454 -1.0557 -0.0092  0.0705
 3621SOL    HW212858   8.231   0.285   7.333 -1.2881  0.6375 -0.1768
 3622SOL     OW12859   1.980   3.445   5.099 -0.1857  0.3910  0.0106
 3622SOL    HW112860   1.889   3.473   5.114 -1.3086 -2.0726 -1.5622
 3622SOL    HW212861   2.016   3.433   5.186 -2.0423 -0.3987  0.7313
 3623SOL     OW12862   2.342   2.698   8.301 -0.3967  0.1908  0.4850
 3623SOL    HW112863   2.410   2.738   8.356 -0.9461  2.0966 -0.1544
 3623SOL    HW212864   2.269   2.684   8.361  0.2918 -1.2648  1.0306
 3624SOL     OW12865   6.635   6.497   5.595  0.2827 -0.1850 -0.2860
 3624SOL    HW112866   6.590   6.574   5.630 -0.2981 -1.3365  1.6373
 3624SOL    HW212867   6.658   6.522   5.506  0.7163  2.4569  0.4811
 3625SOL     OW12868   1.502   5.241   4.090  0.0139 -0.2737  0.4927
 3625SOL    HW112869   1.424   5.215   4.040 -1.5072  0.7781  2.1956
 3625SOL    HW212870   1.523   5.328   4.056 -0.1476 -0.1620  0.6739
 3626SOL     OW12871   2.818   2.369   3.717 -0.0699  0.1194  0.2280
 3626SOL    HW112872   2.853   2.280   3.720  0.1111  0.1092 -1.3540
 3626SOL    HW212873   2.894   2.425   3.701 -0.5519  0.1735 -2.4013
 3627SOL     OW12874   6.900   4.683   3.640  0.3519  0.1273 -0.4295
 3627SOL    HW112875   6.925   4.638   3.721 -0.7838  0.6829  0.2540
 3627SOL    HW212876   6.883   4.612   3.578  0.2830 -0.3451  0.1159
 3628SOL     OW12877   3.750   1.608   5.943 -0.3798  0.1755  0.0047
 3628SOL    HW112878   3.801   1.531   5.918 -0.4628 -0.0291  0.4642
 3628SOL    HW212879   3.814   1.679   5.947 -0.2764  0.1001 -0.2578
 3629SOL     OW12880   7.895   0.275   5.323  0.4401 -0.5479  0.2373
 3629SOL    HW112881   7.986   0.257   5.345  0.2721 -1.1142  0.5091
 3629SOL    HW212882   7.895   0.363   5.287  1.1265 -0.6259  0.0367
 3630SOL     OW12883   4.004   3.694   2.847 -0.5490 -0.3843  0.7026
 3630SOL    HW112884   4.016   3.774   2.898 -1.4577 -0.0186  0.3508
 3630SOL    HW212885   4.014   3.624   2.911 -0.3170  0.0200  1.1196
 3631SOL     OW12886   3.908   7.625   0.997 -0.7616 -0.0120  0.4009
 3631SOL    HW112887   3.990   7.672   1.010  0.0036 -1.2957  0.4731
 3631SOL    HW212888   3.935   7.534   0.981 -2.2068 -0.6994  1.5895
 3632SOL     OW12889   8.660   6.959   1.988 -0.1587 -0.7314 -0.0782
 3632SOL    HW112890   8.705   6.877   1.967 -2.1692 -2.1956  1.0333
 3632SOL    HW212891   8.620   6.986   1.905 -1.0662 -1.9281 -0.0524
 3633SOL     OW12892   2.325   2.459   2.270 -0.3260  0.2148  0.2674
 3633SOL    HW112893   2.368   2.463   2.185  1.6112  1.5079  1.2304
 3633SOL    HW212894   2.396   2.441   2.332 -1.6897 -0.7727  1.6251
 3634SOL     OW12895   5.900   0.284   1.594 -0.2641  0.4561 -0.3524
 3634SOL    HW112896   5.837   0.211   1.587 -0.1311  0.1795  1.0458
 3634SOL    HW212897   5.860   0.355   1.543  0.0253 -0.8336 -2.5007
 3635SOL     OW12898   0.165   6.833   2.941  0.5422 -0.4992  0.1013
 3635SOL    HW112899   0.187   6.861   2.852 -1.9313 -1.0236 -0.7311
 3635SOL    HW212900   0.190   6.908   2.996  4.2247 -0.9763 -0.6108
 3636SOL     OW12901   2.521   0.567   8.456 -0.1061 -0.2924 -1.1133
 3636SOL    HW112902   2.553   0.581   8.544  1.2591 -3.0334 -1.0471
 3636SOL    HW212903   2.482   0.650   8.430 -0.4205  0.6311  1.9816
 3637SOL     OW12904   4.771   7.778   3.729 -0.0585 -0.9037 -0.2314
 3637SOL    HW112905   4.778   7.708   3.794  0.6878 -1.5345 -0.9751
 3637SOL    HW212906   4.842   7.838   3.750 -0.7329 -0.3114  0.4413
 3638SOL     OW12907   4.647   7.277   0.328  0.2769 -0.2273  0.0528
 3638SOL    HW112908   4.619   7.323   0.407  1.0238  1.4046 -0.5935
 3638SOL    HW212909   4.733   7.314   0.307 -0.4134  0.2907 -2.1952
 3639SOL     OW12910   7.197   5.610   0.539  0.1871 -0.0953 -0.0603
 3639SOL    HW112911   7.248   5.689   0.520  0.2954  0.3490  1.8841
 3639SOL    HW212912   7.242   5.540   0.491  0.8257  0.8028 -0.8009
 3640SOL     OW12913   4.847   0.025   1.594  0.6567 -0.3186 -0.1230
 3640SOL    HW112914   4.803   0.009   1.510  2.2373 -2.2363 -0.6634
 3640SOL    HW212915   4.931   0.063   1.569  0.1206  1.5764  0.7911
 3641SOL     OW12916   7.440   6.235   4.045 -0.2160  0.2775  0.4024
 3641SOL    HW112917   7.469   6.307   3.989 -0.5297 -1.0372 -1.5574
 3641SOL    HW212918   7.374   6.189   3.992 -0.8474 -0.7813  2.0446
 3642SOL     OW12919   1.285   6.832   8.866 -0.3785 -0.6610 -0.6496
 3642SOL    HW112920   1.224   6.783   8.811 -1.3890 -0.6069  0.3758
 3642SOL    HW212921   1.296   6.777   8.944 -1.0608  0.4467  0.2554
 3643SOL     OW12922   8.030   5.726   3.515  0.1095  0.1672  0.4417
 3643SOL    HW112923   8.077   5.691   3.590  0.7155 -0.8485 -0.3708
 3643SOL    HW212924   8.031   5.821   3.527  1.4431  0.1038  0.9939
 3644SOL     OW12925   6.829   0.412   1.389 -0.1067 -0.5324  0.6596
 3644SOL    HW112926   6.861   0.466   1.317 -1.7683 -0.3488 -0.0015
 3644SOL    HW212927   6.896   0.345   1.402  0.7206  0.0766 -0.3298
 3645SOL     OW12928   6.225   3.571   3.103  0.2079 -0.3751 -0.7247
 3645SOL    HW112929   6.305   3.536   3.064 -0.8365 -1.7403 -1.7078
 3645SOL    HW212930   6.154   3.528   3.056 -1.1290  1.2061 -0.2388
 3646SOL     OW12931   0.589   6.134   8.889 -0.5897  0.1645  0.5767
 3646SOL    HW112932   0.679   6.109   8.909  0.7269  2.6040 -1.6563
 3646SOL    HW212933   0.570   6.092   8.805 -1.2933  0.2259  0.6962
 3647SOL     OW12934   2.397   3.624   1.030  0.3620  0.6107  1.0808
 3647SOL    HW112935   2.331   3.671   0.980  1.0670  0.1727 -0.3022
 3647SOL    HW212936   2.462   3.691   1.051  2.4917  0.0375 -2.7656
 3648SOL     OW12937   0.069   7.339   5.875  0.9403  0.3797  0.2923
 3648SOL    HW112938   0.074   7.330   5.780 -0.9367 -0.1859  0.2131
 3648SOL    HW212939   0.159   7.359   5.902  1.8335 -1.0346 -1.4287
 3649SOL     OW12940   8.498   5.297   0.550 -0.1640 -0.8366  0.4410
 3649SOL    HW112941   8.469   5.315   0.639 -0.7324 -0.3747  0.1662
 3649SOL    HW212942   8.581   5.344   0.542 -1.8286  2.2233 -0.4197
 3650SOL     OW12943   5.923   8.514   6.670 -0.2495  0.1321  0.0744
 3650SOL    HW112944   5.925   8.421   6.651 -1.6650 -0.2155  1.3824
 3650SOL    HW212945   6.015   8.540   6.673  0.1878 -1.3345  0.1707
 3651SOL     OW12946   0.916   8.539   5.706 -0.0921 -0.6936  0.4363
 3651SOL    HW112947   0.894   8.509   5.794  0.8534 -0.7471  0.6607
 3651SOL    HW212948   0.994   8.489   5.682 -0.2806 -0.6091 -0.3952
 3652SOL     OW12949   1.039   5.278   4.647  0.1222  0.1399 -0.0772
 3652SOL    HW112950   1.036   5.183   4.638  1.6622  0.0582 -0.0121
 3652SOL    HW212951   0.993   5.311   4.571  1.2129 -0.6645 -1.1322
 3653SOL     OW12952   5.840   6.678   5.866  0.5673 -0.5015  0.5871
 3653SOL    HW112953   5.789   6.597   5.869  0.7472 -0.6318  0.1794
 3653SOL    HW212954   5.893   6.676   5.946  2.6868 -2.1981 -0.7407
 3654SOL     OW12955   8.155   0.092   7.329  0.0794 -0.4504  0.4205
 3654SOL    HW112956   8.209   0.043   7.391 -1.6439 -0.0747  2.3279
 3654SOL    HW212957   8.077   0.116   7.379 -0.1153  2.4157 -1.0507
 3655SOL     OW12958   3.961   4.478   6.063  0.1825  0.1210  0.0664
 3655SOL    HW112959   4.006   4.561   6.047  1.1626 -0.4875 -0.4798
 3655SOL    HW212960   4.015   4.434   6.128  0.1780 -0.4688 -0.3223
 3656SOL     OW12961   5.745   0.062   7.688  0.2051  0.5638 -0.0337
 3656SOL    HW112962   5.797   0.077   7.608 -1.2660 -1.1795 -1.3849
 3656SOL    HW212963   5.708  -0.025   7.677 -0.8776  0.6901  2.1191
 3657SOL     OW12964   8.052   1.011   3.076 -0.4738 -0.0734 -0.2219
 3657SOL    HW112965   8.015   1.045   3.158 -0.3484  0.4216 -0.3678
 3657SOL    HW212966   7.992   1.042   3.008  0.5977  1.3771 -0.5375
 3658SOL     OW12967   7.093   6.821   2.201  0.2038  0.0439  0.2182
 3658SOL    HW112968   7.187   6.805   2.187  0.6198  1.3977  1.2072
 3658SOL    HW212969   7.075   6.781   2.286 -0.2261 -0.5765 -0.1608
 3659SOL     OW12970   0.486   2.929   6.411  0.3187 -0.0799  0.2428
 3659SOL    HW112971   0.546   2.980   6.465  0.0604  1.8988 -1.2117
 3659SOL    HW212972   0.528   2.927   6.325 -0.4524 -0.9778 -0.1315
 3660SOL     OW12973   8.278   3.328   1.659 -0.1225  0.4378  0.5354
 3660SOL    HW112974   8.212   3.391   1.688 -0.6663  0.2761 -0.3116
 3660SOL    HW212975   8.295   3.274   1.736 -0.4105  0.9689  0.9772
 3661SOL     OW12976   6.693   3.585   1.121  0.0053  0.2366  0.5255
 3661SOL    HW112977   6.707   3.494   1.095  0.4263  0.2656  0.6348
 3661SOL    HW212978   6.656   3.580   1.209 -1.5967  0.1319 -0.1199
 3662SOL     OW12979   7.194   6.104   2.173  0.4080  0.4710  0.1692
 3662SOL    HW112980   7.110   6.081   2.134  0.1681  1.0074  0.3508
 3662SOL    HW212981   7.174   6.177   2.231  0.6472 -0.6688  1.7580
 3663SOL     OW12982   0.154   6.970   5.270  0.2799 -0.2773  0.2752
 3663SOL    HW112983   0.082   7.019   5.308  0.8801  1.4852 -0.7629
 3663SOL    HW212984   0.122   6.941   5.184  0.1778 -1.0927  0.5820
 3664SOL     OW12985   2.478   2.430   5.980  0.4196 -0.6275  0.3836
 3664SOL    HW112986   2.540   2.377   5.930  0.1496 -0.1821 -0.4318
 3664SOL    HW212987   2.396   2.380   5.978  0.4424 -0.6697  0.4912
 3665SOL     OW12988   3.791   6.577   7.378 -0.1922 -0.1007 -0.3158
 3665SOL    HW112989   3.828   6.544   7.296 -1.3752 -0.1829 -0.8395
 3665SOL    HW212990   3.774   6.670   7.362  0.5630  0.1423  0.2170
 3666SOL     OW12991   6.676   2.564   3.548  0.0319  0.0480 -0.5755
 3666SOL    HW112992   6.656   2.623   3.620 -2.4052  1.4238 -2.2345
 3666SOL    HW212993   6.591   2.529   3.520  0.7909 -0.1019 -3.0110
 3667SOL     OW12994   6.069   4.192   7.313 -0.2321 -0.0906  0.2807
 3667SOL    HW112995   6.121   4.116   7.340  0.2530 -0.7193 -2.1632
 3667SOL    HW212996   6.131   4.247   7.264 -1.1636  0.6399 -0.1081
 3668SOL     OW12997   1.688   6.631   3.831 -0.0155 -0.4858  0.3548
 3668SOL    HW112998   1.681   6.727   3.827 -0.6933 -0.4792  1.3901
 3668SOL    HW212999   1.643   6.600   3.752  1.3547  0.0766 -0.6830
 3669SOL     OW13000   4.568   0.765   8.162  0.1007 -0.3393 -0.1779
 3669SOL    HW113001   4.578   0.781   8.256  1.3956 -0.6152 -0.2531
 3669SOL    HW213002   4.488   0.712   8.155  1.2167 -2.2956  0.9933
 3670SOL     OW13003   0.583   6.880   1.974  0.0212  0.2022  0.1302
 3670SOL    HW113004   0.629   6.842   1.899  1.0181  0.8461  0.4003
 3670SOL    HW213005   0.645   6.873   2.046  0.5741  3.0062  0.0286
 3671SOL     OW13006   0.452   4.401   8.178  0.2025  0.2308  0.4119
 3671SOL    HW113007   0.519   4.450   8.226 -0.2269 -0.9192  2.2936
 3671SOL    HW213008   0.485   4.312   8.172 -0.3603  0.0535 -0.2719
 3672SOL     OW13009   7.935   8.160   0.820  0.2402 -0.1085  0.5033
 3672SOL    HW113010   7.899   8.227   0.879 -2.0287  1.2868 -2.1632
 3672SOL    HW213011   7.904   8.187   0.733  2.7937 -2.3806 -1.2790
 3673SOL     OW13012   4.899   2.262   3.498  0.0629 -0.1411  0.1751
 3673SOL    HW113013   4.950   2.232   3.573  0.0405 -0.8061 -0.0647
 3673SOL    HW213014   4.872   2.351   3.521  1.5853  0.3439  0.1618
 3674SOL     OW13015   0.076   7.984   8.194  0.7219 -0.2440  0.0322
 3674SOL    HW113016   0.157   8.019   8.156  0.2585  1.6243  0.6449
 3674SOL    HW213017   0.039   8.057   8.243 -0.4346 -1.5782  1.2670
 3675SOL     OW13018   6.133   5.794   8.182 -0.5142 -0.5668  0.4359
 3675SOL    HW113019   6.085   5.734   8.124  0.8440 -1.2338 -0.0519
 3675SOL    HW213020   6.182   5.850   8.122 -0.8681  0.2687  0.9189
 3676SOL     OW13021   1.083   6.037   1.976  0.0318 -0.0070  0.0235
 3676SOL    HW113022   1.178   6.042   1.990  0.3510 -0.9727 -1.5561
 3676SOL    HW213023   1.047   6.020   2.062  1.2509  0.8169  0.7310
 3677SOL     OW13024   5.752   7.290   2.074  0.4207 -0.1636 -0.9194
 3677SOL    HW113025   5.699   7.366   2.048 -1.7422 -0.0164  3.1182
 3677SOL    HW213026   5.837   7.327   2.098 -0.8426  1.2951  1.7559
 3678SOL     OW13027   8.710   6.922   1.310  0.2765 -0.0207 -0.1683
 3678SOL    HW113028   8.624   6.924   1.269 -0.5840  0.7240  1.6074
 3678SOL    HW213029   8.705   6.985   1.381  1.8948 -0.8460  0.7353
 3679SOL     OW13030   2.099   4.295   3.795  0.1458 -0.3728 -0.1724
 3679SOL    HW113031   2.017   4.331   3.830 -0.4505 -2.0899  0.3027
 3679SOL    HW213032   2.131   4.238   3.864  2.0798  0.6879 -0.1381
 3680SOL     OW13033   3.244   6.119   0.190  0.3651  0.1861 -0.1513
 3680SOL    HW113034   3.177   6.183   0.214 -0.2400 -1.0865  1.8021
 3680SOL    HW213035   3.323   6.170   0.180 -0.6054  1.5544 -1.1503
 3681SOL     OW13036   0.197   3.422   0.859 -0.1625 -0.0894  0.3131
 3681SOL    HW113037   0.166   3.393   0.945  0.2856  0.9137  0.8345
 3681SOL    HW213038   0.234   3.509   0.876 -1.8864  1.0093 -1.2714
 3682SOL     OW13039   1.974   6.075   6.954  0.0711  0.0031 -0.0952
 3682SOL    HW113040   1.926   6.152   6.984 -1.2274 -0.6847 -0.3494
 3682SOL    HW213041   2.055   6.110   6.916  0.6047  1.0762  1.8820
 3683SOL     OW13042   3.060   1.089   7.396 -0.3796 -0.6449 -0.1857
 3683SOL    HW113043   3.097   1.038   7.324 -0.2468  0.2915 -0.7927
 3683SOL    HW213044   3.127   1.154   7.416 -0.7396 -0.4116  0.2697
 3684SOL     OW13045   0.043   6.311   0.784  0.6370 -0.2730  0.0060
 3684SOL    HW113046   0.090   6.384   0.823 -0.0087  0.5777 -0.7587
 3684SOL    HW213047   0.000   6.268   0.858 -0.1465  0.9972  0.3287
 3685SOL     OW13048   7.437   8.794   5.307 -0.0406  0.1173  0.2091
 3685SOL    HW113049   7.504   8.861   5.324  0.5328 -0.6392  1.0261
 3685SOL    HW213050   7.471   8.745   5.232  0.1073  0.0215  0.3372
 3686SOL     OW13051   0.562   7.725   6.412 -0.0919  0.1385 -0.5394
 3686SOL    HW113052   0.506   7.683   6.478 -0.2260 -2.4446 -2.1674
 3686SOL    HW213053   0.501   7.773   6.356 -0.0076  2.0821  0.9199
 3687SOL     OW13054   4.534   3.360   5.175 -0.5162 -0.3750 -0.4713
 3687SOL    HW113055   4.489   3.329   5.097 -1.2105  1.0754 -0.6705
 3687SOL    HW213056   4.583   3.437   5.146  1.2901 -1.2882 -0.0201
 3688SOL     OW13057   2.145   4.894   6.103 -0.3033 -0.2411  0.1893
 3688SOL    HW113058   2.118   4.809   6.138 -0.7032 -0.2091 -0.0367
 3688SOL    HW213059   2.174   4.875   6.014 -0.4490 -0.1320  0.1181
 3689SOL     OW13060   5.853   5.068   8.695  0.1039  0.5226 -0.6110
 3689SOL    HW113061   5.818   5.148   8.655  0.4334 -0.1959 -2.4748
 3689SOL    HW213062   5.797   4.998   8.660  0.5990 -0.1843 -0.0194
 3690SOL     OW13063   8.483   4.453   4.590 -0.1582 -0.3640  0.2685
 3690SOL    HW113064   8.429   4.385   4.551  0.9810 -0.3521 -1.4691
 3690SOL    HW213065   8.424   4.526   4.605 -1.1183 -1.2369  0.8949
 3691SOL     OW13066   6.888   1.215   5.991 -0.6857  0.5795  0.2855
 3691SOL    HW113067   6.868   1.121   5.996  1.8625 -0.1321 -0.8830
 3691SOL    HW213068   6.856   1.241   5.905 -0.5198  0.5092  0.2001
 3692SOL     OW13069   4.603   2.960   6.951  0.1559  0.4209  0.0742
 3692SOL    HW113070   4.588   2.948   6.858  2.1319 -2.1530 -0.0040
 3692SOL    HW213071   4.515   2.971   6.988 -0.7846 -0.1046 -1.8918
 3693SOL     OW13072   4.060   5.353   5.027 -0.0680  0.3845  0.4875
 3693SOL    HW113073   4.054   5.261   5.053  1.0599  0.1130 -0.1649
 3693SOL    HW213074   3.980   5.392   5.061 -0.7779 -0.9305  0.3922
 3694SOL     OW13075   7.645   4.294   8.768 -0.4447  0.0342  0.3171
 3694SOL    HW113076   7.552   4.317   8.769 -0.9319 -1.7797  1.2922
 3694SOL    HW213077   7.661   4.256   8.855  0.0294 -3.8549 -1.2585
 3695SOL     OW13078   5.931   6.514   5.344  0.0998 -0.2474 -0.0836
 3695SOL    HW113079   5.877   6.563   5.283 -2.0144 -1.1054  0.9853
 3695SOL    HW213080   5.958   6.578   5.410 -1.9478 -0.2816  0.8564
 3696SOL     OW13081   3.809   5.929   0.144  0.2650 -0.1293  0.7250
 3696SOL    HW113082   3.802   6.012   0.096  1.6410 -0.2288  0.3065
 3696SOL    HW213083   3.743   5.936   0.213 -0.3113  0.9037  0.1002
 3697SOL     OW13084   1.152   0.503   5.765 -0.6644 -0.0587 -0.1787
 3697SOL    HW113085   1.101   0.487   5.845  1.2894 -2.2673  0.7512
 3697SOL    HW213086   1.229   0.551   5.795 -0.5514  0.2682 -0.9777
 3698SOL     OW13087   1.819   7.056   5.313 -0.0091 -0.0171  0.0987
 3698SOL    HW113088   1.751   7.088   5.372  0.2571 -0.4866  0.6742
 3698SOL    HW213089   1.789   6.969   5.286  0.1715 -0.0629  0.0416
 3699SOL     OW13090   0.232   1.901   3.977  0.8590 -0.3230 -0.1803
 3699SOL    HW113091   0.188   1.968   3.924  0.5793  0.9648  1.5718
 3699SOL    HW213092   0.316   1.888   3.933  0.6911  0.7820 -0.8857
 3700SOL     OW13093   0.839   0.432   6.340  0.1858  0.6316 -0.2307
 3700SOL    HW113094   0.756   0.409   6.296 -1.1445  0.5987  2.1268
 3700SOL    HW213095   0.812   0.485   6.415  2.2506 -0.0004  1.0330
 3701SOL     OW13096   1.545   7.573   1.352 -0.4132 -0.7860  0.3252
 3701SOL    HW113097   1.591   7.561   1.268 -1.3717  2.7706 -0.8710
 3701SOL    HW213098   1.616   7.588   1.415  0.2606 -2.0375 -0.0874
 3702SOL     OW13099   8.856   0.827   4.978  0.6910 -0.2827 -0.0948
 3702SOL    HW113100   8.781   0.827   4.919 -0.7741 -1.4996  1.6557
 3702SOL    HW213101   8.884   0.919   4.981 -1.5586  0.4716  0.1602
 3703SOL     OW13102   1.699   4.697   7.670 -0.7962  0.0832 -0.5519
 3703SOL    HW113103   1.697   4.719   7.577 -1.4173 -2.1267 -1.1364
 3703SOL    HW213104   1.628   4.634   7.681 -1.0155  0.6339  1.5380
 3704SOL     OW13105   0.676   4.075   3.123 -0.0328 -0.2012  0.2167
 3704SOL    HW113106   0.686   3.980   3.136  0.3995 -0.1079  0.5995
 3704SOL    HW213107   0.625   4.083   3.043  3.2341 -0.7192 -2.1010
 3705SOL     OW13108   0.533   7.257   0.708 -0.5207  0.5217  0.2568
 3705SOL    HW113109   0.488   7.339   0.688 -2.2835 -0.5210 -0.2048
 3705SOL    HW213110   0.549   7.216   0.623 -1.3971 -0.5030  0.5715
 3706SOL     OW13111   7.931   7.500   3.411  0.5667  0.4306  0.2230
 3706SOL    HW113112   7.918   7.594   3.428 -0.6336  0.2035  0.6576
 3706SOL    HW213113   7.882   7.457   3.481  3.1213 -0.5465  1.5176
 3707SOL     OW13114   0.368   2.778   1.458  0.4362 -0.2249  0.1723
 3707SOL    HW113115   0.425   2.855   1.466 -0.8079  0.5848  1.8319
 3707SOL    HW213116   0.313   2.797   1.382  0.3534  0.3897  0.3803
 3708SOL     OW13117   6.581   0.087   4.268 -0.0445  0.4921  0.1447
 3708SOL    HW113118   6.607   0.151   4.203  0.9138 -0.3407 -0.3127
 3708SOL    HW213119   6.626   0.114   4.348 -0.8916  1.2754  0.3734
 3709SOL     OW13120   1.815   5.174   0.626 -0.4052  0.1108  0.4706
 3709SOL    HW113121   1.902   5.184   0.589 -0.4301 -2.1516 -0.3068
 3709SOL    HW213122   1.822   5.098   0.684 -1.6925  0.3168  0.9306
 3710SOL     OW13123   6.041   2.101   1.974  0.1418  0.4078 -0.2535
 3710SOL    HW113124   6.004   2.033   1.918 -3.6829  1.0279  1.1748
 3710SOL    HW213125   6.070   2.055   2.053 -0.2284  0.1643 -0.2567
 3711SOL     OW13126   2.168   6.355   4.605 -0.0310  0.2564  0.3186
 3711SOL    HW113127   2.145   6.433   4.654 -0.5650  0.2559  0.0704
 3711SOL    HW213128   2.257   6.372   4.573 -0.7465  1.4716 -1.1503
 3712SOL     OW13129   0.536   6.254   1.978  0.0584  1.0354 -0.2448
 3712SOL    HW113130   0.447   6.285   1.963 -1.1430 -1.1843  1.6222
 3712SOL    HW213131   0.577   6.324   2.029 -1.5520  1.0076  1.2166
 3713SOL     OW13132   7.924   8.555   2.697  0.0584  0.3657  0.0926
 3713SOL    HW113133   7.855   8.575   2.760  0.8150  0.7584  0.8149
 3713SOL    HW213134   8.005   8.580   2.742  1.0086 -3.1765  0.6358
 3714SOL     OW13135   3.734   5.063   4.383 -0.2896 -0.1517  0.3246
 3714SOL    HW113136   3.681   5.055   4.463 -3.4362  0.4047 -1.5444
 3714SOL    HW213137   3.701   4.994   4.326  0.0334  1.1017 -1.4462
 3715SOL     OW13138   3.513   5.740   6.277 -0.1251 -0.2181  0.2346
 3715SOL    HW113139   3.438   5.768   6.226  0.8741  0.1924 -1.0541
 3715SOL    HW213140   3.582   5.803   6.257  0.7375 -0.8901  0.9647
 3716SOL     OW13141   8.012   0.757   3.552 -0.1516  0.2380 -0.4916
 3716SOL    HW113142   8.079   0.823   3.533  1.1333 -1.5938 -2.7981
 3716SOL    HW213143   8.052   0.700   3.617 -1.2085  1.5099  1.3903
 3717SOL     OW13144   5.829   7.631   5.347 -0.4957  0.5682  0.1845
 3717SOL    HW113145   5.767   7.647   5.419 -0.5353  2.2937 -0.1938
 3717SOL    HW213146   5.862   7.717   5.324  3.7393 -0.3960  1.7730
 3718SOL     OW13147   0.757   3.044   7.375  0.3597 -0.5060  0.4376
 3718SOL    HW113148   0.794   2.956   7.374  0.5953 -0.3988 -0.1917
 3718SOL    HW213149   0.732   3.061   7.285  0.0442 -0.0378  0.6086
 3719SOL     OW13150   0.796   6.184   7.082  0.2903 -0.0377 -0.4822
 3719SOL    HW113151   0.703   6.162   7.090  0.1914  0.8146  1.0898
 3719SOL    HW213152   0.840   6.125   7.143  0.7491 -0.1960 -0.9573
 3720SOL     OW13153   3.215   6.016   1.965  0.1506  0.2412  0.1090
 3720SOL    HW113154   3.145   6.080   1.984 -0.9373 -1.4089  2.1474
 3720SOL    HW213155   3.182   5.966   1.891 -1.2671 -0.9846  1.4891
 3721SOL     OW13156   2.140   2.031   1.650 -0.1462  0.1140  0.2770
 3721SOL    HW113157   2.063   2.064   1.604  0.1253  0.1527 -0.1539
 3721SOL    HW213158   2.112   2.024   1.741 -1.0374 -1.0310 -0.0663
 3722SOL     OW13159   6.287   0.521   5.729  0.0363  0.6233  0.4140
 3722SOL    HW113160   6.196   0.513   5.701 -0.1401  1.0267  0.8564
 3722SOL    HW213161   6.326   0.585   5.670 -0.5392  2.0602  1.5455
 3723SOL     OW13162   2.632   1.818   7.975 -0.0293 -0.3329 -0.1003
 3723SOL    HW113163   2.726   1.805   7.991 -0.2149 -1.1762  0.3151
 3723SOL    HW213164   2.616   1.908   8.004  0.4970 -0.4372  0.5410
 3724SOL     OW13165   6.604   3.165   2.915  0.0045  0.2694  0.1470
 3724SOL    HW113166   6.662   3.094   2.887  2.6038  2.2382  0.1056
 3724SOL    HW213167   6.599   3.223   2.839 -2.1058  0.1875  0.1658
 3725SOL     OW13168   5.250   3.990   5.175 -0.2589  0.0703 -0.3325
 3725SOL    HW113169   5.306   3.915   5.158  2.0481  1.7397 -0.6723
 3725SOL    HW213170   5.289   4.061   5.123 -2.9718  1.2729 -0.9127
 3726SOL     OW13171   3.164   7.593   0.446  0.1236 -0.0323  0.4168
 3726SOL    HW113172   3.246   7.629   0.479 -0.1915 -0.6769  1.9839
 3726SOL    HW213173   3.167   7.500   0.470 -0.0529 -0.6044 -1.5914
 3727SOL     OW13174   4.765   1.145   1.896 -0.1362 -0.0847 -0.1634
 3727SOL    HW113175   4.802   1.215   1.951 -1.6125  1.0612 -0.5716
 3727SOL    HW213176   4.764   1.068   1.953 -1.1055  0.9354  1.2609
 3728SOL     OW13177   1.015   7.873   3.782 -0.4447  0.6188 -0.6800
 3728SOL    HW113178   1.073   7.806   3.817 -0.3154  1.0986  0.0472
 3728SOL    HW213179   0.982   7.919   3.860 -2.8403 -0.4740 -0.9432
 3729SOL     OW13180   3.966   1.174   5.267  0.0379 -0.1265 -0.8346
 3729SOL    HW113181   3.956   1.092   5.316 -0.0500  0.2928 -0.1239
 3729SOL    HW213182   4.040   1.217   5.309 -1.3404  1.2117  0.3662
 3730SOL     OW13183   5.713   8.004   7.253  0.1777  0.6729  0.5016
 3730SOL    HW113184   5.711   8.091   7.213 -1.3387 -0.2712 -1.6203
 3730SOL    HW213185   5.794   7.965   7.223  0.0528  0.7421  0.0736
 3731SOL     OW13186   3.746   8.879   3.730  0.8050 -0.0575 -0.1492
 3731SOL    HW113187   3.655   8.909   3.731  1.1199  0.9337  1.0464
 3731SOL    HW213188   3.741   8.791   3.692 -0.3487  0.8142 -2.1983
 3732SOL     OW13189   5.961   4.733   6.932  0.4183 -0.5557  0.2037
 3732SOL    HW113190   5.872   4.769   6.924  0.2323 -0.8988  0.6293
 3732SOL    HW213191   6.002   4.785   7.001  0.5883 -0.3244 -0.0702
 3733SOL     OW13192   0.469   7.151   8.565  0.0996 -0.3669  0.1148
 3733SOL    HW113193   0.484   7.162   8.659 -3.8554  0.8504  0.8004
 3733SOL    HW213194   0.552   7.178   8.525  1.1984  1.3760  3.1573
 3734SOL     OW13195   3.700   4.060   3.619  0.6313  0.2467 -0.9684
 3734SOL    HW113196   3.758   4.132   3.591  1.1054  0.4625  0.4931
 3734SOL    HW213197   3.758   3.984   3.622  1.0452  0.5897  1.1174
 3735SOL     OW13198   2.370   0.528   4.476  0.0197  0.0219 -0.3635
 3735SOL    HW113199   2.387   0.616   4.511 -0.1899 -0.0780 -0.0082
 3735SOL    HW213200   2.438   0.473   4.516 -0.7385 -0.2585  0.5682
 3736SOL     OW13201   1.249   1.316   5.147  0.4632 -0.2199  0.1521
 3736SOL    HW113202   1.161   1.324   5.185  0.2262 -1.8020  0.0023
 3736SOL    HW213203   1.280   1.230   5.176  1.1376 -0.5523 -1.4479
 3737SOL     OW13204   1.294   6.035   6.914  0.2133 -0.6386  0.4732
 3737SOL    HW113205   1.345   6.112   6.939  0.8135  0.0967 -2.5781
 3737SOL    HW213206   1.204   6.067   6.907  0.4306 -0.2189 -0.5946
 3738SOL     OW13207   2.850   6.500   7.673  0.2443  0.0258 -0.8544
 3738SOL    HW113208   2.797   6.575   7.699 -0.3485 -0.6794  0.0122
 3738SOL    HW213209   2.798   6.457   7.606 -0.1093 -0.4456 -0.2836
 3739SOL     OW13210   2.537   8.703   0.620 -0.2608  0.0987  0.1203
 3739SOL    HW113211   2.519   8.631   0.559 -0.5411 -0.6427  1.0555
 3739SOL    HW213212   2.479   8.774   0.592 -1.6408 -0.8172  0.5431
 3740SOL     OW13213   0.904   1.621   5.496 -0.5563 -0.0940 -0.1903
 3740SOL    HW113214   0.925   1.685   5.428 -1.0976 -2.2227 -2.5131
 3740SOL    HW213215   0.817   1.645   5.525 -0.5221  0.5681 -0.5927
 3741SOL     OW13216   6.180   6.337   6.607 -0.6442 -0.4564  0.1127
 3741SOL    HW113217   6.124   6.411   6.584 -1.1339 -0.4225  1.3754
 3741SOL    HW213218   6.133   6.260   6.575  0.9071 -0.1921 -3.3173
 3742SOL     OW13219   5.964   6.607   1.172 -0.3330 -0.1177 -0.1460
 3742SOL    HW113220   5.896   6.639   1.232 -0.9468 -0.2230 -0.7726
 3742SOL    HW213221   6.020   6.552   1.228  0.4134  1.5479  0.8144
 3743SOL     OW13222   0.965   0.973   6.104  0.4772 -0.6081 -0.3959
 3743SOL    HW113223   1.039   0.957   6.045  0.6710 -0.4160 -0.2062
 3743SOL    HW213224   0.903   1.023   6.051  0.9885  0.2478 -0.2113
 3744SOL     OW13225   2.834   6.152   1.346  0.1129 -0.0150  0.3301
 3744SOL    HW113226   2.851   6.246   1.335  0.7958 -0.1335  0.3439
 3744SOL    HW213227   2.865   6.113   1.265 -0.8405 -0.1563  0.0206
 3745SOL     OW13228   7.592   4.006   4.396  0.1027  0.6175 -0.2746
 3745SOL    HW113229   7.606   4.002   4.490 -0.0394  0.1721 -0.2680
 3745SOL    HW213230   7.645   4.080   4.366  1.4507 -0.2239 -0.0731
 3746SOL     OW13231   0.475   0.919   0.857 -0.0286 -0.1635 -0.0758
 3746SOL    HW113232   0.488   0.831   0.891 -0.3939  0.0410  0.6042
 3746SOL    HW213233   0.384   0.940   0.878  0.6956  1.2809  1.9231
 3747SOL     OW13234   3.387   2.217   2.034 -0.0699  0.0913 -0.5347
 3747SOL    HW113235   3.367   2.256   1.949  0.1889  1.9008  0.2003
 3747SOL    HW213236   3.305   2.220   2.083  0.3781  1.4726  0.1741
 3748SOL     OW13237   4.501   1.752   0.481 -0.2427  0.3449 -0.1745
 3748SOL    HW113238   4.424   1.706   0.449 -0.3708  1.0575 -0.9324
 3748SOL    HW213239   4.505   1.832   0.428  1.2079  0.1630 -0.3730
 3749SOL     OW13240   2.836   1.748   4.063 -0.4348  0.4062  0.0870
 3749SOL    HW113241   2.836   1.653   4.067  0.4617  0.4121  0.5960
 3749SOL    HW213242   2.828   1.776   4.154  2.3020  0.7630  0.3104
 3750SOL     OW13243   2.564   0.855   0.288  0.1993  0.2625  0.1785
 3750SOL    HW113244   2.636   0.799   0.316  0.4468  0.5847  0.1864
 3750SOL    HW213245   2.547   0.829   0.198  1.2084  1.0941 -0.2653
 3751SOL     OW13246   4.179   0.527   3.457  0.1463 -0.1104 -0.1475
 3751SOL    HW113247   4.191   0.433   3.439  0.4222  0.1084 -1.1427
 3751SOL    HW213248   4.090   0.533   3.493 -0.2267 -0.6345 -0.9691
 3752SOL     OW13249   6.208   5.642   5.609 -0.2484 -0.0639 -0.2041
 3752SOL    HW113250   6.211   5.577   5.679 -0.1794  1.4006  1.1871
 3752SOL    HW213251   6.174   5.593   5.534 -2.9992 -1.0838  1.5450
 3753SOL     OW13252   6.979   2.081   7.995  1.6954  0.2131  1.0065
 3753SOL    HW113253   6.918   2.131   8.048  0.8485 -0.3763  0.6095
 3753SOL    HW213254   7.010   2.011   8.053 -0.5331 -1.4732  0.2933
 3754SOL     OW13255   5.142   4.832   2.394  0.3996  0.6631  0.4835
 3754SOL    HW113256   5.097   4.802   2.315  1.9992  1.9678 -0.9952
 3754SOL    HW213257   5.087   4.904   2.426 -0.1500  0.2653  0.4545
 3755SOL     OW13258   7.117   6.198   3.682  1.0899  0.4846  0.0962
 3755SOL    HW113259   7.181   6.140   3.724  2.2839  0.4862 -1.6045
 3755SOL    HW213260   7.083   6.147   3.608  0.0167  0.9390  0.2556
 3756SOL     OW13261   4.674   0.270   2.688 -0.4345  0.1513 -0.0629
 3756SOL    HW113262   4.690   0.338   2.622  0.5398 -0.9637 -1.0080
 3756SOL    HW213263   4.730   0.294   2.762 -0.2194  0.4663 -0.3266
 3757SOL     OW13264   0.139   2.202   2.947 -0.3773  0.1395  0.0388
 3757SOL    HW113265   0.091   2.194   2.865  1.6705 -0.6105 -1.1664
 3757SOL    HW213266   0.131   2.116   2.988  1.3635 -0.5926 -1.0528
 3758SOL     OW13267   7.196   2.303   2.084 -0.0082 -0.1026  0.0747
 3758SOL    HW113268   7.122   2.364   2.089  0.5367  0.5724  0.0491
 3758SOL    HW213269   7.160   2.226   2.038 -0.0915  1.1666 -2.1111
 3759SOL     OW13270   0.372   6.879   1.337  0.6239 -0.1844  0.7128
 3759SOL    HW113271   0.442   6.933   1.301 -0.4005  0.0371 -1.0305
 3759SOL    HW213272   0.372   6.800   1.284 -0.3220 -0.2581  0.7964
 3760SOL     OW13273   0.726   1.997   1.396 -0.1191  0.1607 -0.1059
 3760SOL    HW113274   0.763   1.947   1.323 -0.6910  2.1634 -1.8757
 3760SOL    HW213275   0.783   1.977   1.471  2.5097  0.5327 -1.8729
 3761SOL     OW13276   0.590   5.951   1.975 -0.2182  0.2259  0.2610
 3761SOL    HW113277   0.592   6.046   1.991 -0.0256  0.6813 -2.0918
 3761SOL    HW213278   0.497   5.932   1.962 -0.0583  0.6225 -1.7602
 3762SOL     OW13279   5.092   0.535   6.283 -0.2494  0.6179  0.1627
 3762SOL    HW113280   5.001   0.563   6.292 -0.7707 -0.7029 -0.6264
 3762SOL    HW213281   5.123   0.524   6.373 -1.3618 -0.3284  0.4653
 3763SOL     OW13282   6.883   2.260   4.693  0.2815  0.6476 -0.2559
 3763SOL    HW113283   6.977   2.276   4.706  0.7230  0.8667 -3.1029
 3763SOL    HW213284   6.848   2.345   4.667 -0.9605  0.7879  1.6643
 3764SOL     OW13285   2.654   2.011   4.368  0.3554 -0.1778 -0.2933
 3764SOL    HW113286   2.583   1.955   4.400  0.3959  0.6514  1.3271
 3764SOL    HW213287   2.731   1.954   4.368 -0.0816 -0.7952 -1.0694
 3765SOL     OW13288   0.875   1.251   4.907  0.1146  0.2301  0.1162
 3765SOL    HW113289   0.960   1.223   4.940 -0.9060 -2.4264  0.6993
 3765SOL    HW213290   0.893   1.285   4.819  1.7578 -0.3489  0.2012
 3766SOL     OW13291   0.054   6.682   8.839 -0.0128  0.1824 -0.5065
 3766SOL    HW113292   0.006   6.741   8.896 -2.0108 -0.4866 -1.4015
 3766SOL    HW213293   0.032   6.594   8.871  1.4127 -0.1382 -0.3457
 3767SOL     OW13294   7.214   2.816   3.464  0.7892  0.1052  0.7328
 3767SOL    HW113295   7.181   2.872   3.534 -0.3703  1.9432 -1.1578
 3767SOL    HW213296   7.160   2.737   3.468 -0.7790  1.1380  0.5512
 3768SOL     OW13297   5.302   5.528   3.542  0.2669  0.2734  0.3555
 3768SOL    HW113298   5.243   5.553   3.471  0.0101 -0.8456  0.1556
 3768SOL    HW213299   5.314   5.434   3.532 -1.3065 -0.3011  2.8957
 3769SOL     OW13300   6.555   2.551   0.194 -0.3168  0.6264 -0.6368
 3769SOL    HW113301   6.506   2.491   0.251 -0.1093 -0.5552 -1.6795
 3769SOL    HW213302   6.503   2.556   0.114  1.9186 -1.8573 -2.3883
 3770SOL     OW13303   1.412   3.002   6.591  0.4637  0.1123  0.2249
 3770SOL    HW113304   1.418   2.983   6.498 -0.1796 -0.9598  0.3862
 3770SOL    HW213305   1.408   2.916   6.633 -1.2359  0.5691  1.0862
 3771SOL     OW13306   6.994   5.074   0.718  0.2324 -0.2783  0.2094
 3771SOL    HW113307   7.083   5.039   0.716 -0.1900 -1.3228 -1.5216
 3771SOL    HW213308   6.939   5.000   0.744 -0.2392  0.1403  0.4248
 3772SOL     OW13309   4.049   6.159   2.347 -0.4457  0.1282  0.2404
 3772SOL    HW113310   4.105   6.087   2.378 -0.4753  0.5446  1.2951
 3772SOL    HW213311   4.020   6.202   2.427 -1.1509  0.7745 -0.3595
 3773SOL     OW13312   4.185   5.293   6.729  0.1429  0.8606  0.1457
 3773SOL    HW113313   4.261   5.333   6.687 -0.1984  1.2694 -0.0980
 3773SOL    HW213314   4.194   5.315   6.821  2.0035 -1.7893  0.7101
 3774SOL     OW13315   8.346   7.972   5.294 -0.2567  0.3652 -0.1748
 3774SOL    HW113316   8.391   7.945   5.213  2.4691  1.1924  0.9514
 3774SOL    HW213317   8.377   7.910   5.360 -0.1450  1.4560  0.8178
 3775SOL     OW13318   1.389   7.032   6.369 -0.0173 -0.2647  0.3234
 3775SOL    HW113319   1.454   7.035   6.299  1.4719  1.0058  1.6636
 3775SOL    HW213320   1.364   6.940   6.375  1.4136 -0.7292 -0.4679
 3776SOL     OW13321   6.176   3.508   4.277  1.2064 -0.2340  0.2524
 3776SOL    HW113322   6.198   3.524   4.369 -0.7113  1.6264  0.4685
 3776SOL    HW213323   6.085   3.476   4.280  1.7430 -2.0167 -0.9097
 3777SOL     OW13324   7.356   5.676   3.904  0.0379  0.1151 -0.5371
 3777SOL    HW113325   7.324   5.750   3.955 -0.9255 -0.2068 -0.6647
 3777SOL    HW213326   7.293   5.666   3.833  0.5326 -0.4024 -0.9140
 3778SOL     OW13327   6.131   8.198   1.309  0.2545  0.5739 -0.2795
 3778SOL    HW113328   6.178   8.264   1.361  1.1507 -0.4212  0.2207
 3778SOL    HW213329   6.160   8.214   1.219  2.8067 -0.9184  0.1680
 3779SOL     OW13330   6.769   1.181   1.967  0.0937  0.0056 -0.3322
 3779SOL    HW113331   6.720   1.154   2.045 -2.7131 -2.2926 -2.7003
 3779SOL    HW213332   6.856   1.142   1.978 -1.2874 -3.1828  0.1909
 3780SOL     OW13333   6.228   5.077   2.344 -0.0041 -0.1012  0.4369
 3780SOL    HW113334   6.250   5.133   2.418  3.2665 -0.9232  0.2709
 3780SOL    HW213335   6.303   5.018   2.336  0.1266  0.3246 -3.8827
 3781SOL     OW13336   5.701   1.960   1.060  0.3477 -0.5838  0.8369
 3781SOL    HW113337   5.606   1.968   1.070  0.2846  0.5172 -0.4143
 3781SOL    HW213338   5.734   2.048   1.077  1.1641 -0.9699  1.2945
 3782SOL     OW13339   2.173   7.702   1.810  0.2435  0.2228  0.0439
 3782SOL    HW113340   2.081   7.686   1.829  0.5328  0.5307  1.9074
 3782SOL    HW213341   2.180   7.797   1.802  0.4514  0.2246  0.2376
 3783SOL     OW13342   8.424   8.812   4.025  0.0179 -0.0346 -0.1613
 3783SOL    HW113343   8.440   8.821   4.119 -0.4566 -1.1833  0.0442
 3783SOL    HW213344   8.510   8.828   3.985  0.1241  0.9380  0.4162
 3784SOL     OW13345   4.985   8.110   3.081 -0.2213 -0.3263  0.4297
 3784SOL    HW113346   5.011   8.058   3.005 -0.5628 -0.7002  0.5685
 3784SOL    HW213347   5.034   8.192   3.071 -0.1479 -0.4307 -0.1127
 3785SOL     OW13348   8.735   1.146   8.798  0.1488 -1.0923  0.6282
 3785SOL    HW113349   8.712   1.118   8.886 -0.8620 -0.9311  0.4293
 3785SOL    HW213350   8.672   1.100   8.741 -0.5519  0.3660  0.1743
 3786SOL     OW13351   6.412   2.204   7.028  0.3209 -0.1448  0.4742
 3786SOL    HW113352   6.452   2.223   6.943 -2.9334  1.1373 -0.9310
 3786SOL    HW213353   6.362   2.123   7.013 -0.1651  0.0101  1.2059
 3787SOL     OW13354   2.752   5.517   5.296 -0.0668  0.0655  0.0777
 3787SOL    HW113355   2.716   5.474   5.374 -1.2230  0.0681 -0.4378
 3787SOL    HW213356   2.675   5.538   5.243  0.6252  1.0688 -0.5504
 3788SOL     OW13357   4.036   5.905   3.194  0.1904  0.1017 -0.5539
 3788SOL    HW113358   4.037   5.976   3.258  0.9390  0.3078 -0.7859
 3788SOL    HW213359   3.952   5.913   3.149 -0.2085  0.1449  0.1871
 3789SOL     OW13360   8.375   2.615   3.944 -0.3714 -0.1796 -0.0973
 3789SOL    HW113361   8.471   2.621   3.946 -0.4547  2.4136  0.5778
 3789SOL    HW213362   8.356   2.543   3.884  1.9961 -1.2274  0.3056
 3790SOL     OW13363   2.608   3.373   5.530 -0.8866 -0.1019 -0.3186
 3790SOL    HW113364   2.641   3.397   5.617 -0.3617  1.5860 -0.9506
 3790SOL    HW213365   2.516   3.396   5.532 -1.2810 -1.5661  0.2809
 3791SOL     OW13366   4.092   2.028   1.244  0.4004  0.3467 -0.3311
 3791SOL    HW113367   4.022   2.082   1.282 -0.0504 -1.9107  2.4269
 3791SOL    HW213368   4.156   2.019   1.315  2.6844  0.8946 -2.2141
 3792SOL     OW13369   1.498   0.098   1.118 -0.6629  0.1151  0.2783
 3792SOL    HW113370   1.439   0.167   1.090  0.6041  0.6580 -1.1833
 3792SOL    HW213371   1.443   0.037   1.167 -2.1907  1.1446 -0.1070
 3793SOL     OW13372   2.899   6.394   5.036 -0.4621  0.8459 -0.4479
 3793SOL    HW113373   2.922   6.354   5.120 -0.4624 -0.6923 -1.1384
 3793SOL    HW213374   2.955   6.471   5.029 -0.4753  1.0050  0.9554
 3794SOL     OW13375   5.927   1.872   1.466  0.1805  0.3522  0.3594
 3794SOL    HW113376   5.845   1.896   1.423  0.2122 -2.0337 -1.1822
 3794SOL    HW213377   5.910   1.787   1.505  0.9999  1.2648  2.8791
 3795SOL     OW13378   4.221   0.005   3.105  0.4797  0.4953  0.7195
 3795SOL    HW113379   4.279  -0.068   3.082 -0.0775  0.1083  0.5116
 3795SOL    HW213380   4.134  -0.034   3.106  0.2638  0.9840  1.4293
 3796SOL     OW13381   2.890   1.819   6.204  0.1496  0.1219 -0.0885
 3796SOL    HW113382   2.971   1.771   6.222  0.0699 -0.0245 -0.1209
 3796SOL    HW213383   2.821   1.765   6.242 -0.0778 -0.4491 -1.2586
 3797SOL     OW13384   2.042   2.340   4.525  0.1720  0.4736 -0.5396
 3797SOL    HW113385   2.058   2.425   4.481 -1.6071  0.8110 -0.5920
 3797SOL    HW213386   1.950   2.343   4.549  0.1736 -1.3357 -0.2359
 3798SOL     OW13387   7.793   2.620   5.223  0.2404 -0.2875 -0.6545
 3798SOL    HW113388   7.704   2.613   5.188 -1.7603 -1.8113  3.9801
 3798SOL    HW213389   7.799   2.710   5.255 -1.3164 -1.1944  2.5125
 3799SOL     OW13390   5.680   8.869   3.793  0.0806  0.2081 -0.0154
 3799SOL    HW113391   5.684   8.839   3.884 -0.3832  0.8046  0.2145
 3799SOL    HW213392   5.600   8.923   3.789  0.0776  0.1660 -0.7822
 3800SOL     OW13393   8.033   2.542   7.745  0.1527  0.0543  0.3243
 3800SOL    HW113394   7.940   2.536   7.722 -0.1062  2.1748  0.6325
 3800SOL    HW213395   8.040   2.498   7.829 -1.0458  1.7067  1.3480
 3801SOL     OW13396   7.079   4.048   3.957  0.2704  0.3549 -0.4491
 3801SOL    HW113397   6.992   4.039   3.997  0.1651  0.4512 -0.6551
 3801SOL    HW213398   7.117   3.960   3.964 -0.8676 -0.4039 -2.6961
 3802SOL     OW13399   5.204   1.575   5.352  0.2399  0.1023 -0.4607
 3802SOL    HW113400   5.148   1.500   5.332  0.4018  0.2644 -1.5741
 3802SOL    HW213401   5.222   1.567   5.446  0.4161 -1.3754 -0.5978
 3803SOL     OW13402   5.030   2.534   8.442  0.0835  0.1047  0.3271
 3803SOL    HW113403   5.094   2.603   8.427 -0.6164  0.8924  0.8481
 3803SOL    HW213404   5.028   2.484   8.360  1.4987 -0.0755  0.3811
 3804SOL     OW13405   5.297   5.261   5.530 -0.2669 -0.1774 -0.1793
 3804SOL    HW113406   5.345   5.331   5.575 -1.5921  0.6616  0.0200
 3804SOL    HW213407   5.289   5.291   5.440 -0.1207 -0.4654 -0.2879
 3805SOL     OW13408   4.956   3.753   1.284 -0.5879  0.1933  0.5220
 3805SOL    HW113409   4.981   3.738   1.375 -1.6375  1.5477  1.0634
 3805SOL    HW213410   4.898   3.680   1.262 -0.8712  0.2179  1.1644
 3806SOL     OW13411   2.971   8.155   5.355 -0.5125 -0.4142  0.2372
 3806SOL    HW113412   2.920   8.104   5.419  0.5989 -0.5476  1.0322
 3806SOL    HW213413   3.062   8.133   5.373 -0.1347  0.0534 -0.9775
 3807SOL     OW13414   4.332   3.845   5.089 -0.5947  0.0725  0.3727
 3807SOL    HW113415   4.423   3.861   5.114 -0.8856  1.1344  0.8038
 3807SOL    HW213416   4.337   3.815   4.998  0.2816 -1.2703  0.8526
 3808SOL     OW13417   3.482   0.470   7.431 -0.3219  0.1477 -0.3177
 3808SOL    HW113418   3.430   0.454   7.352 -0.3674 -1.0340 -0.0649
 3808SOL    HW213419   3.494   0.384   7.470  1.3342  0.4587 -0.0515
 3809SOL     OW13420   2.132   4.209   3.542 -0.0343  0.2618 -0.3885
 3809SOL    HW113421   2.185   4.137   3.576 -1.0911 -0.6843 -0.6772
 3809SOL    HW213422   2.105   4.258   3.620  0.7545  0.4036 -0.1978
 3810SOL     OW13423   4.034   5.105   7.981  0.2310  0.6467 -0.1457
 3810SOL    HW113424   4.125   5.120   8.007  0.5010 -0.5157 -0.3742
 3810SOL    HW213425   4.034   5.017   7.943 -1.2425  0.1100  1.0203
 3811SOL     OW13426   8.502   7.920   1.235 -0.0053 -0.1009 -0.1671
 3811SOL    HW113427   8.423   7.871   1.258 -1.5640  1.2113 -2.3200
 3811SOL    HW213428   8.529   7.884   1.151  1.5441 -0.3081  0.3835
 3812SOL     OW13429   7.370   7.321   4.641 -0.4510 -0.0231 -0.3296
 3812SOL    HW113430   7.370   7.319   4.737 -1.3898 -0.7701 -0.3318
 3812SOL    HW213431   7.337   7.408   4.618 -1.5169 -0.3165  0.0392
 3813SOL     OW13432   1.207   1.048   7.511  0.2625 -0.2149 -0.6617
 3813SOL    HW113433   1.292   1.073   7.546 -1.1202  0.4282  2.6254
 3813SOL    HW213434   1.201   0.954   7.529  0.1594 -0.1831 -0.5223
 3814SOL     OW13435   6.845   3.820   1.640  0.6482  0.0425  0.4648
 3814SOL    HW113436   6.826   3.726   1.643 -0.6108  0.2973  1.1146
 3814SOL    HW213437   6.895   3.837   1.720  1.2329 -0.1403  0.1422
 3815SOL     OW13438   5.152   4.314   8.745 -0.1378 -0.8370  0.2977
 3815SOL    HW113439   5.125   4.229   8.711 -0.3183 -1.3940  1.7313
 3815SOL    HW213440   5.070   4.361   8.760 -0.0572 -0.5593 -0.1424
 3816SOL     OW13441   3.858   2.052   7.533  0.0055  0.0189  0.0992
 3816SOL    HW113442   3.785   2.092   7.581  1.4469  0.7524  1.7933
 3816SOL    HW213443   3.816   2.002   7.463 -2.0891  0.8137  0.7052
 3817SOL     OW13444   6.899   4.343   6.468 -0.2591  0.1088 -0.1397
 3817SOL    HW113445   6.944   4.293   6.399  1.1795  1.1337  0.0145
 3817SOL    HW213446   6.930   4.304   6.550  0.4663  0.8965 -0.0300
 3818SOL     OW13447   8.419   3.168   3.018  0.3297 -0.4876  0.3336
 3818SOL    HW113448   8.369   3.111   3.077 -0.1083  0.2448  0.6779
 3818SOL    HW213449   8.448   3.109   2.948  0.0223 -1.1694  0.7612
 3819SOL     OW13450   1.831   7.018   2.644  0.0547  0.0530  0.5488
 3819SOL    HW113451   1.751   7.036   2.693  0.8486  1.2628  1.4501
 3819SOL    HW213452   1.802   7.011   2.553 -1.0399  0.7362  0.8226
 3820SOL     OW13453   1.921   8.030   8.417 -0.5685 -0.3292 -0.2038
 3820SOL    HW113454   1.850   7.987   8.369  0.7033 -0.0376 -2.5015
 3820SOL    HW213455   2.000   8.010   8.366  0.7002  1.0490  1.1162
 3821SOL     OW13456   8.095   8.002   6.683 -0.2757 -0.6229 -0.0371
 3821SOL    HW113457   8.156   8.002   6.756 -1.0956  1.1728  0.6953
 3821SOL    HW213458   8.009   8.005   6.724 -0.7364  1.4226 -1.0302
 3822SOL     OW13459   8.458   7.963   5.697  0.0256  0.3633  0.4114
 3822SOL    HW113460   8.465   7.887   5.755  0.9055  0.7623  0.8480
 3822SOL    HW213461   8.549   7.984   5.674 -0.2888  0.4520 -0.8005
 3823SOL     OW13462   8.003   2.940   0.498 -0.1339  0.0149  0.6785
 3823SOL    HW113463   8.006   3.036   0.506 -1.1118  0.1326 -0.0739
 3823SOL    HW213464   7.982   2.910   0.587  1.5453  0.3873  1.2314
 3824SOL     OW13465   4.431   7.867   1.187  0.1990 -0.1778  0.3206
 3824SOL    HW113466   4.498   7.812   1.227  0.6130 -0.0606 -0.1953
 3824SOL    HW213467   4.434   7.844   1.094  0.0234  0.3530  0.1811
 3825SOL     OW13468   3.287   0.616   5.027  0.1272  0.1590 -0.4246
 3825SOL    HW113469   3.270   0.529   4.991  1.1990 -0.0421 -0.4693
 3825SOL    HW213470   3.296   0.672   4.949 -1.5228  0.5180 -0.3851
 3826SOL     OW13471   4.359   1.078   7.155  0.1257  0.0073  0.1457
 3826SOL    HW113472   4.312   1.003   7.193  0.8435  0.1318  1.3344
 3826SOL    HW213473   4.446   1.073   7.194  0.0728  1.6674  0.5332
 3827SOL     OW13474   3.176   2.946   1.880 -0.5605  0.5070  0.0665
 3827SOL    HW113475   3.174   3.040   1.862 -1.4467  0.6961  1.0426
 3827SOL    HW213476   3.087   2.916   1.861  0.1326 -0.4682 -1.7980
 3828SOL     OW13477   1.031   8.450   3.218 -0.0166 -0.4950  0.1343
 3828SOL    HW113478   0.986   8.435   3.301 -1.8160  1.7341 -0.3307
 3828SOL    HW213479   0.989   8.529   3.182  1.4299 -0.7712 -2.3854
 3829SOL     OW13480   1.909   0.872   6.601  0.5408  0.9622 -0.1329
 3829SOL    HW113481   1.928   0.965   6.586 -1.9329  1.5016 -0.3875
 3829SOL    HW213482   1.838   0.872   6.665  1.3422 -0.8389  0.8199
 3830SOL     OW13483   6.061   6.624   6.921  0.3938  0.2410  0.0325
 3830SOL    HW113484   6.081   6.531   6.908 -0.2525  0.4160 -2.9941
 3830SOL    HW213485   6.138   6.659   6.965  0.9156 -1.5947  0.6855
 3831SOL     OW13486   0.429   3.023   1.281  0.6900  0.0629 -0.0454
 3831SOL    HW113487   0.337   3.045   1.274  0.9346  1.9339  1.5911
 3831SOL    HW213488   0.463   3.028   1.192 -0.2570  2.1095 -0.3379
 3832SOL     OW13489   3.741   8.022   2.178 -0.0894  0.1934 -0.2916
 3832SOL    HW113490   3.773   8.072   2.103 -1.7962 -0.3632 -1.4586
 3832SOL    HW213491   3.676   8.079   2.219  0.9749  0.5726  0.9275
 3833SOL     OW13492   5.059   6.874   3.977 -0.2068  0.4354  0.0554
 3833SOL    HW113493   5.104   6.807   4.028  0.7316  1.2553  0.3467
 3833SOL    HW213494   4.966   6.856   3.990 -0.0657  1.3602  3.1328
 3834SOL     OW13495   4.149   3.376   4.818  0.3559  0.0608  0.5202
 3834SOL    HW113496   4.195   3.309   4.769 -0.9676 -1.0273  0.7134
 3834SOL    HW213497   4.095   3.328   4.880 -1.9333  1.2120 -0.4757
 3835SOL     OW13498   8.733   7.212   6.994 -0.6621 -0.1420  0.3964
 3835SOL    HW113499   8.760   7.203   6.903 -0.7110  0.7608  0.2830
 3835SOL    HW213500   8.791   7.153   7.043 -1.3178 -1.4264 -0.3222
 3836SOL     OW13501   4.903   0.703   6.970 -0.5558 -0.4021 -0.0887
 3836SOL    HW113502   4.929   0.796   6.967 -2.9424  0.3124 -1.7719
 3836SOL    HW213503   4.905   0.675   6.878 -1.6360 -1.4575  0.1825
 3837SOL     OW13504   1.000   1.473   8.399  0.1944 -0.3384 -0.2274
 3837SOL    HW113505   0.944   1.422   8.340 -0.0331 -0.6261  0.2255
 3837SOL    HW213506   0.940   1.503   8.467  0.3971  0.2462 -0.3073
 3838SOL     OW13507   0.071   6.726   6.186  0.1413 -0.6430 -0.1179
 3838SOL    HW113508  -0.001   6.753   6.128  0.6561 -0.1526 -0.5431
 3838SOL    HW213509   0.063   6.631   6.193 -0.6216 -0.5799 -0.0609
 3839SOL     OW13510   7.990   6.635   1.728 -0.3485  0.8130 -0.4577
 3839SOL    HW113511   7.894   6.626   1.727 -0.6190  1.5283  3.3485
 3839SOL    HW213512   8.005   6.727   1.707 -0.2534  0.2592 -3.1128
 3840SOL     OW13513   4.807   7.508   0.432 -0.2292  0.1913 -0.0295
 3840SOL    HW113514   4.716   7.505   0.405 -0.8573  1.3974  1.7682
 3840SOL    HW213515   4.825   7.601   0.446  1.7020  0.1190 -1.5994
 3841SOL     OW13516   4.378   1.475   8.638  0.3139  0.2683  0.2065
 3841SOL    HW113517   4.354   1.568   8.644 -0.9531 -0.0136 -0.2142
 3841SOL    HW213518   4.436   1.470   8.563  0.6121  0.7622  0.3981
 3842SOL     OW13519   0.759   7.765   7.273 -0.3738 -0.3651 -0.4146
 3842SOL    HW113520   0.707   7.733   7.348 -1.9801 -0.6419 -1.5831
 3842SOL    HW213521   0.828   7.817   7.313 -1.1841 -0.4872  1.2696
 3843SOL     OW13522   8.770   4.941   0.025  0.1045  0.2608 -0.0446
 3843SOL    HW113523   8.718   4.900   0.094 -1.6435 -0.5024 -1.7200
 3843SOL    HW213524   8.833   4.874  -0.000  1.9061  1.1278  1.8749
 3844SOL     OW13525   7.265   1.055   5.699  0.2162 -0.2054 -0.3158
 3844SOL    HW113526   7.236   1.144   5.678  0.7372 -0.0237 -0.2871
 3844SOL    HW213527   7.185   1.007   5.716 -0.1189  0.0755 -1.0507
 3845SOL     OW13528   2.088   2.393   3.036 -0.7410 -0.1391  0.1629
 3845SOL    HW113529   2.118   2.305   3.014  0.4051  0.8320 -2.5556
 3845SOL    HW213530   2.023   2.415   2.970  0.6091  1.8228 -0.6137
 3846SOL     OW13531   0.888   2.043   6.551  0.5176 -0.1500  0.2851
 3846SOL    HW113532   0.839   1.969   6.586  2.4805 -1.6040  0.1949
 3846SOL    HW213533   0.950   2.066   6.620 -0.9494  2.3877  0.8510
 3847SOL     OW13534   8.427   8.798   3.242  0.8365 -0.2266  0.2171
 3847SOL    HW113535   8.492   8.867   3.226  0.9465 -0.6883 -1.5072
 3847SOL    HW213536   8.478   8.717   3.237  0.4058 -0.5158  0.5237
 3848SOL     OW13537   6.452   5.723   0.872 -0.0421 -0.6634 -0.4474
 3848SOL    HW113538   6.404   5.799   0.838 -1.9736 -1.5032  0.2414
 3848SOL    HW213539   6.472   5.745   0.963 -0.4727 -0.8966 -0.2913
 3849SOL     OW13540   6.845   0.120   7.590 -0.1998  0.3220 -0.0845
 3849SOL    HW113541   6.829   0.213   7.608 -2.2771  0.4145 -1.9609
 3849SOL    HW213542   6.776   0.074   7.637 -0.5180 -0.0579 -0.8871
 3850SOL     OW13543   8.672   6.016   3.599 -0.0927  0.3433  0.1387
 3850SOL    HW113544   8.650   6.103   3.564 -1.7415 -0.5060 -1.0817
 3850SOL    HW213545   8.760   5.999   3.566  0.2175  1.5009  0.3105
 3851SOL     OW13546   5.346   7.426   8.743  0.3743  0.0596  0.3169
 3851SOL    HW113547   5.410   7.403   8.810 -0.2399 -1.8507  0.3130
 3851SOL    HW213548   5.264   7.437   8.791 -0.0254 -1.1122 -0.0475
 3852SOL     OW13549   7.377   0.093   5.085  0.4880 -0.2154  0.0076
 3852SOL    HW113550   7.462   0.051   5.102  0.3161 -0.3960  0.4300
 3852SOL    HW213551   7.313   0.033   5.122  0.3077  1.0087  1.7730
 3853SOL     OW13552   3.339   0.412   1.488 -0.3936  1.0632  0.2110
 3853SOL    HW113553   3.375   0.433   1.402  1.5383 -0.2243  0.6429
 3853SOL    HW213554   3.337   0.496   1.534  0.9138  1.3709 -0.2704
 3854SOL     OW13555   3.934   1.346   6.515  0.5335  0.2005  0.3840
 3854SOL    HW113556   3.862   1.313   6.461 -0.0747  0.4304  1.0284
 3854SOL    HW213557   3.975   1.267   6.552  1.0015  0.0409 -0.4601
 3855SOL     OW13558   3.808   6.603   8.233  0.0349 -0.3245 -0.1620
 3855SOL    HW113559   3.783   6.518   8.269 -0.1518  0.2938  1.2272
 3855SOL    HW213560   3.879   6.634   8.289 -0.5828  0.8792 -0.0036
 3856SOL     OW13561   4.444   4.329   1.442  0.2767  0.2920 -0.4507
 3856SOL    HW113562   4.527   4.281   1.451 -0.1049 -0.6290 -1.5437
 3856SOL    HW213563   4.469   4.414   1.407  0.6285 -0.8135 -3.1194
 3857SOL     OW13564   6.123   6.707   1.579  0.7075 -0.3063 -0.0903
 3857SOL    HW113565   6.100   6.715   1.672  1.3485  0.4163  0.0184
 3857SOL    HW213566   6.214   6.737   1.575  0.6225 -0.1523 -0.9888
 3858SOL     OW13567   5.533   7.910   7.086 -0.0197 -0.1974  0.0817
 3858SOL    HW113568   5.450   7.930   7.130 -0.0380  1.3500 -0.5999
 3858SOL    HW213569   5.600   7.937   7.149 -0.0432  0.0662 -0.0046
 3859SOL     OW13570   7.114   2.227   0.206 -0.5110  0.2183  0.2159
 3859SOL    HW113571   7.020   2.216   0.219 -0.3862 -1.4297 -0.1157
 3859SOL    HW213572   7.141   2.153   0.151  1.3201 -0.5615  2.0011
 3860SOL     OW13573   7.826   6.270   0.635 -0.4659  0.0695 -0.7761
 3860SOL    HW113574   7.753   6.219   0.600  1.5768 -2.2501 -1.9378
 3860SOL    HW213575   7.832   6.244   0.726  1.2265 -2.8304 -1.5991
 3861SOL     OW13576   4.348   5.823   8.817  0.1002  0.5161  0.0960
 3861SOL    HW113577   4.424   5.881   8.819  0.7931 -0.3497 -0.3451
 3861SOL    HW213578   4.296   5.853   8.743  0.3702  0.6634 -0.0325
 3862SOL     OW13579   1.048   6.974   5.650 -0.0793  0.0203  0.2132
 3862SOL    HW113580   1.128   7.021   5.673 -0.8878  1.8734 -0.5888
 3862SOL    HW213581   1.043   6.903   5.714  0.5596  1.7789  2.3666
 3863SOL     OW13582   2.943   7.309   7.881  0.3687  0.4390  0.5577
 3863SOL    HW113583   2.937   7.243   7.950 -0.4740 -1.3744 -1.1512
 3863SOL    HW213584   3.035   7.308   7.855  0.3772 -0.0235  0.5974
 3864SOL     OW13585   1.457   5.528   4.535 -0.1567  0.2098  0.1278
 3864SOL    HW113586   1.389   5.503   4.472  0.5339 -0.8636 -0.2018
 3864SOL    HW213587   1.422   5.501   4.620  0.4958 -1.7929 -0.1957
 3865SOL     OW13588   8.250   0.702   5.444  0.5974 -0.3607  0.1686
 3865SOL    HW113589   8.273   0.619   5.485  2.3364  0.6152  1.2788
 3865SOL    HW213590   8.202   0.749   5.512  0.9954  0.1652  0.0859
 3866SOL     OW13591   2.081   0.045   6.582 -0.6113  0.5274  0.4759
 3866SOL    HW113592   2.049   0.130   6.552 -1.4511 -0.2508 -0.9186
 3866SOL    HW213593   2.176   0.049   6.569 -0.8809  0.4501 -1.7773
 3867SOL     OW13594   1.830   0.772   5.473 -0.1489  0.6934 -0.2711
 3867SOL    HW113595   1.888   0.774   5.397 -0.4660 -0.8193 -0.5805
 3867SOL    HW213596   1.889   0.766   5.548  0.1420 -1.7256 -0.6252
 3868SOL     OW13597   3.999   5.076   5.072 -0.1224  0.9090  0.0643
 3868SOL    HW113598   4.076   5.075   5.016 -0.7087  2.9406 -0.8741
 3868SOL    HW213599   4.034   5.062   5.160  0.9237 -1.2831 -0.6139
 3869SOL     OW13600   8.344   5.260   3.818  0.7338 -0.2231  0.0811
 3869SOL    HW113601   8.335   5.352   3.843  1.5899  0.1721 -0.9610
 3869SOL    HW213602   8.256   5.232   3.794  0.5618  0.5059 -0.1562
 3870SOL     OW13603   8.855   4.037   0.551 -0.1074  1.0063 -0.0785
 3870SOL    HW113604   8.934   4.021   0.603  1.4676  2.0916 -2.0113
 3870SOL    HW213605   8.816   3.950   0.541  0.7940  0.4480  0.9708
 3871SOL     OW13606   3.621   3.572   0.940 -0.6740 -0.2594  0.1309
 3871SOL    HW113607   3.662   3.654   0.911 -0.8940 -0.8723 -2.1320
 3871SOL    HW213608   3.690   3.506   0.930 -0.5309 -0.3943  1.8301
 3872SOL     OW13609   6.012   8.558   4.476  0.0903  0.1599  0.2240
 3872SOL    HW113610   6.101   8.533   4.499 -0.4210  0.4393  2.7198
 3872SOL    HW213611   5.968   8.475   4.455  0.7590 -0.0281 -0.4910
 3873SOL     OW13612   3.491   2.368   0.752 -0.2624  0.6225  0.0491
 3873SOL    HW113613   3.515   2.404   0.838  0.2482  0.1538  0.1014
 3873SOL    HW213614   3.568   2.320   0.723 -0.8499 -0.2346 -0.1364
 3874SOL     OW13615   1.707   3.912   5.987  1.0205 -0.3114  0.3366
 3874SOL    HW113616   1.622   3.872   5.971 -0.5014  2.1018  1.7173
 3874SOL    HW213617   1.745   3.860   6.058  0.0170 -0.5717  0.7067
 3875SOL     OW13618   8.427   0.960   3.138 -0.0314 -0.0810  0.1223
 3875SOL    HW113619   8.360   0.937   3.074  0.1894  0.1543 -0.2016
 3875SOL    HW213620   8.510   0.942   3.093  0.1173 -0.5397  0.5852
 3876SOL     OW13621   8.302   6.348   2.826 -0.1467  0.0459 -0.0138
 3876SOL    HW113622   8.356   6.426   2.838 -0.5138  0.3831 -0.4998
 3876SOL    HW213623   8.212   6.378   2.837 -0.2670 -0.4089  0.2798
 3877SOL     OW13624   0.312   0.186   5.248 -0.3528 -0.0076 -0.4469
 3877SOL    HW113625   0.274   0.208   5.163 -2.1723  2.2412  0.8383
 3877SOL    HW213626   0.279   0.099   5.268 -1.7789  0.3626 -1.0682
 3878SOL     OW13627   6.718   3.042   3.941  0.1320  0.3321 -0.1447
 3878SOL    HW113628   6.706   3.001   3.855 -2.5593  0.6029  0.0209
 3878SOL    HW213629   6.796   3.095   3.931  0.6973 -0.7423 -1.9863
 3879SOL     OW13630   8.117   3.344   6.222 -0.1475 -0.2399 -0.4936
 3879SOL    HW113631   8.195   3.289   6.229 -0.7122 -0.8852  1.2863
 3879SOL    HW213632   8.140   3.425   6.266 -0.7750 -0.8242  0.9731
 3880SOL     OW13633   1.624   3.321   1.430  0.0160  0.5489  0.5655
 3880SOL    HW113634   1.622   3.401   1.482 -2.6047  0.8110  0.2200
 3880SOL    HW213635   1.535   3.286   1.436  0.8750 -1.9363  0.0576
 3881SOL     OW13636   7.924   5.272   5.550  0.2113  0.2633  0.0626
 3881SOL    HW113637   7.872   5.331   5.494 -0.0920  0.1799  0.2557
 3881SOL    HW213638   7.932   5.319   5.633  0.4955  0.3007  0.0155
 3882SOL     OW13639   4.187   5.514   5.467  0.2051  0.5501  0.0697
 3882SOL    HW113640   4.250   5.586   5.467 -0.7729  1.5011  2.6371
 3882SOL    HW213641   4.118   5.543   5.526 -0.6967 -2.1011  0.4160
 3883SOL     OW13642   0.341   0.707   7.927 -0.0859 -0.1192 -0.0554
 3883SOL    HW113643   0.259   0.715   7.976 -1.3675 -1.2560 -1.8396
 3883SOL    HW213644   0.408   0.743   7.985 -2.0693  2.4883  0.7981
 3884SOL     OW13645   1.243   3.508   6.539 -0.0706  0.0182  0.2049
 3884SOL    HW113646   1.271   3.425   6.501 -0.3391 -0.6687  1.4605
 3884SOL    HW213647   1.168   3.486   6.594 -1.2553  1.3721 -0.7919
 3885SOL     OW13648   8.568   6.625   1.724  0.1065  0.1824  0.1284
 3885SOL    HW113649   8.560   6.634   1.629  1.2353 -1.1120 -0.1292
 3885SOL    HW213650   8.630   6.693   1.750  1.5232 -0.8443 -0.4266
 3886SOL     OW13651   1.860   2.434   3.343  0.0067  0.0687 -0.1463
 3886SOL    HW113652   1.813   2.369   3.396 -1.3705  2.0511  1.1916
 3886SOL    HW213653   1.952   2.420   3.364 -0.2440 -1.4542  0.0696
 3887SOL     OW13654   7.117   3.227   2.328 -0.0683  0.4235 -0.1143
 3887SOL    HW113655   7.044   3.176   2.293 -1.2122  1.7783  0.2480
 3887SOL    HW213656   7.080   3.312   2.348  1.4847  0.9493  0.6685
 3888SOL     OW13657   2.404   1.175   4.146  0.0377 -0.1210  0.9538
 3888SOL    HW113658   2.312   1.175   4.121  0.2816 -1.7852 -0.1023
 3888SOL    HW213659   2.422   1.084   4.171  1.8758 -0.3701 -0.9669
 3889SOL     OW13660   8.369   5.895   4.942 -0.6692 -0.2638  0.5515
 3889SOL    HW113661   8.423   5.951   4.886  0.3085 -0.4569  1.2784
 3889SOL    HW213662   8.321   5.840   4.881  2.2466 -2.2532 -0.1372
 3890SOL     OW13663   7.039   3.026   1.370  0.0863  0.0177 -0.7272
 3890SOL    HW113664   7.060   3.074   1.289  0.2176  0.6554 -0.3245
 3890SOL    HW213665   6.950   3.053   1.390  0.3605  0.5577 -0.1872
 3891SOL     OW13666   6.603   4.411   7.523  0.5496 -0.2696 -0.3244
 3891SOL    HW113667   6.617   4.343   7.457 -0.9658  0.4335 -1.4351
 3891SOL    HW213668   6.641   4.490   7.484  1.1806 -0.1942  0.4135
 3892SOL     OW13669   1.299   6.384   6.091 -0.2927 -0.0870  0.4074
 3892SOL    HW113670   1.215   6.346   6.115 -0.2222  0.1581  1.0555
 3892SOL    HW213671   1.326   6.434   6.168 -0.6983  1.8400 -0.6153
 3893SOL     OW13672   4.316   6.866   8.190 -0.3741 -0.8344 -0.1820
 3893SOL    HW113673   4.231   6.910   8.195 -0.2226 -0.4341 -0.8903
 3893SOL    HW213674   4.324   6.841   8.098  0.1858 -1.0527 -0.0753
 3894SOL     OW13675   1.624   1.124   2.411 -0.1496  0.5516 -0.3369
 3894SOL    HW113676   1.546   1.070   2.397 -0.5324  1.2549 -0.9675
 3894SOL    HW213677   1.697   1.068   2.385 -0.4464 -0.0652  0.1235
 3895SOL     OW13678   6.961   6.838   2.990 -0.1303  0.0528 -0.2547
 3895SOL    HW113679   6.944   6.778   2.918  1.4907 -1.4476  0.5353
 3895SOL    HW213680   6.911   6.803   3.063 -0.3151  0.5116 -0.1574
 3896SOL     OW13681   1.265   7.749   8.187  0.1519  0.0798 -0.1861
 3896SOL    HW113682   1.330   7.682   8.207  0.2112  0.8858  2.8004
 3896SOL    HW213683   1.181   7.706   8.205  0.1004  0.2689  0.0297
 3897SOL     OW13684   4.559   3.277   5.568 -0.0713  0.0970 -0.7139
 3897SOL    HW113685   4.493   3.310   5.629  0.6058  1.4928 -0.6901
 3897SOL    HW213686   4.529   3.307   5.482  0.5290  0.7464 -0.7001
 3898SOL     OW13687   4.329   6.660   3.823  0.4644  0.6051  0.2314
 3898SOL    HW113688   4.322   6.580   3.875  0.2256  1.6695  1.9114
 3898SOL    HW213689   4.270   6.722   3.865 -2.0304  0.7085 -3.0532
 3899SOL     OW13690   7.374   3.237   0.037  0.4898  0.5291 -0.5517
 3899SOL    HW113691   7.335   3.150   0.026 -0.9762  1.0511  0.1786
 3899SOL    HW213692   7.455   3.234  -0.013 -0.4416 -0.6677 -2.0634
 3900SOL     OW13693   5.179   4.938   5.486  0.1771 -0.3353 -0.6860
 3900SOL    HW113694   5.183   5.034   5.488  1.3499 -0.3873  0.9804
 3900SOL    HW213695   5.219   4.910   5.568 -2.3467 -2.2013  0.0590
 3901SOL     OW13696   7.259   6.211   8.417 -0.6150  0.1102  0.1839
 3901SOL    HW113697   7.298   6.197   8.331 -0.0231  0.3393  0.4121
 3901SOL    HW213698   7.289   6.298   8.444 -0.4679 -0.1266  0.7979
 3902SOL     OW13699   8.581   0.432   4.475  0.0208  0.3465 -0.1211
 3902SOL    HW113700   8.515   0.464   4.414  0.5571  0.2699 -0.7533
 3902SOL    HW213701   8.664   0.439   4.427  0.0886 -2.9604 -0.7505
 3903SOL     OW13702   3.276   7.477   0.801 -0.6324 -0.5218  0.9136
 3903SOL    HW113703   3.371   7.466   0.806 -0.3934  0.0292 -1.1477
 3903SOL    HW213704   3.261   7.567   0.829 -0.4785 -0.4326  0.7131
 3904SOL     OW13705   7.580   7.058   3.787  0.2661 -0.4516 -0.3178
 3904SOL    HW113706   7.545   7.107   3.861 -0.0132  1.3833 -1.5825
 3904SOL    HW213707   7.674   7.051   3.806  0.1490 -0.2833  0.3607
 3905SOL     OW13708   3.260   3.777   0.536  0.0380 -0.2778 -0.6751
 3905SOL    HW113709   3.281   3.869   0.554  0.5466  0.0291 -2.6707
 3905SOL    HW213710   3.278   3.733   0.619 -0.4947  1.4485  0.4226
 3906SOL     OW13711   0.757   1.281   8.349 -0.2885  0.2498  0.1853
 3906SOL    HW113712   0.827   1.232   8.393 -0.0606  0.7971  0.4458
 3906SOL    HW213713   0.712   1.327   8.420  0.7273  1.9640 -0.2229
 3907SOL     OW13714   2.087   2.386   5.841 -0.0234  0.1059  0.2872
 3907SOL    HW113715   2.134   2.342   5.912 -0.3564 -1.0819 -0.2003
 3907SOL    HW213716   2.156   2.422   5.785  0.2419  1.0377  1.1837
 3908SOL     OW13717   7.673   5.206   2.348 -0.0385  0.1914 -0.1568
 3908SOL    HW113718   7.722   5.215   2.430 -0.9262 -2.3165  0.7459
 3908SOL    HW213719   7.584   5.232   2.370 -0.5036 -1.3985  0.0119
 3909SOL     OW13720   0.011   2.789   3.974  0.1729 -0.1941 -0.6080
 3909SOL    HW113721  -0.051   2.852   3.937 -1.2053 -1.3786 -0.3969
 3909SOL    HW213722   0.057   2.753   3.898 -2.5119 -2.4813 -1.3262
 3910SOL     OW13723   3.990   4.839   6.980  0.5058  0.5139  0.0058
 3910SOL    HW113724   4.014   4.930   6.962 -0.9041  0.9539  0.2436
 3910SOL    HW213725   3.992   4.796   6.894  2.1344  0.5024  0.0218
 3911SOL     OW13726   3.267   8.369   0.364 -0.1480 -0.4896  0.0236
 3911SOL    HW113727   3.184   8.415   0.365  0.4144  0.5537  1.2735
 3911SOL    HW213728   3.322   8.416   0.427  1.7737 -0.4435 -1.5793
 3912SOL     OW13729   0.771   8.652   1.948 -0.2516  0.0080 -0.3185
 3912SOL    HW113730   0.712   8.582   1.921 -0.9778  0.5867 -0.2419
 3912SOL    HW213731   0.773   8.647   2.044 -0.9632  0.6203 -0.2667
 3913SOL     OW13732   2.794   6.992   4.909 -0.2070  0.0445 -0.2673
 3913SOL    HW113733   2.737   6.951   4.973 -1.0643 -1.1318 -1.7155
 3913SOL    HW213734   2.805   7.082   4.940 -2.1982  0.0756  0.4622
 3914SOL     OW13735   8.729   0.448   7.512  0.5085  0.1267 -0.2483
 3914SOL    HW113736   8.696   0.454   7.422  1.1168 -0.5384 -0.5251
 3914SOL    HW213737   8.753   0.356   7.522  1.6806  0.4651  0.1551
 3915SOL     OW13738   5.340   3.312   3.349 -0.3543 -0.0831  0.1373
 3915SOL    HW113739   5.328   3.405   3.333 -1.6074 -0.3872 -0.8698
 3915SOL    HW213740   5.253   3.274   3.335  0.1417 -1.4025  0.4956
 3916SOL     OW13741   7.890   8.837   2.197 -0.5528  0.6838 -0.0243
 3916SOL    HW113742   7.878   8.860   2.289 -0.2291 -0.7137  0.4038
 3916SOL    HW213743   7.836   8.899   2.149 -0.1418  1.9222  1.0485
 3917SOL     OW13744   0.058   6.213   2.828 -0.4284 -0.5785  0.3227
 3917SOL    HW113745   0.106   6.290   2.859  0.5700 -1.1328  0.2033
 3917SOL    HW213746   0.022   6.239   2.743 -3.4623  1.0610  1.9579
 3918SOL     OW13747   1.076   4.660   0.891  0.2451 -0.1836 -0.2357
 3918SOL    HW113748   1.150   4.659   0.952  1.0050 -2.2827 -1.0931
 3918SOL    HW213749   1.065   4.568   0.866 -0.9160  0.4389 -2.2031
 3919SOL     OW13750   2.544   5.290   0.358  0.3790 -0.3634 -0.0995
 3919SOL    HW113751   2.550   5.372   0.406 -1.0596 -0.2577 -0.0716
 3919SOL    HW213752   2.557   5.315   0.266  2.0448 -0.4223  0.0833
 3920SOL     OW13753   4.393   2.054   6.930 -0.1513 -0.0794 -0.1593
 3920SOL    HW113754   4.325   2.010   6.879  0.6820 -0.8897 -0.6007
 3920SOL    HW213755   4.346   2.098   7.000 -1.2351  0.2940 -1.0926
 3921SOL     OW13756   7.573   7.522   8.642  0.0970 -0.1736 -0.5663
 3921SOL    HW113757   7.633   7.496   8.572  0.4135 -1.2427  0.0714
 3921SOL    HW213758   7.487   7.523   8.600  0.3991  0.1122 -1.1920
 3922SOL     OW13759   0.133   7.327   2.579 -0.1440 -0.2110  1.0248
 3922SOL    HW113760   0.084   7.381   2.518  1.0757 -0.4799 -0.2566
 3922SOL    HW213761   0.216   7.374   2.591  0.4116 -1.1180  0.9048
 3923SOL     OW13762   5.854   3.378   6.213  0.1832 -0.6671 -0.1762
 3923SOL    HW113763   5.772   3.421   6.188  0.9044  1.0076  0.2460
 3923SOL    HW213764   5.826   3.297   6.255 -1.2844  0.1387  0.4678
 3924SOL     OW13765   6.283   8.349   0.842  0.3273  0.1375  0.0712
 3924SOL    HW113766   6.265   8.399   0.762  1.8237  1.1468  0.3312
 3924SOL    HW213767   6.353   8.397   0.886  0.7742 -1.3719  1.1099
 3925SOL     OW13768   2.910   0.830   4.334  0.5978  0.4932  0.1433
 3925SOL    HW113769   2.941   0.863   4.250 -0.1339  0.9761  0.0525
 3925SOL    HW213770   2.937   0.738   4.336  0.0076  0.2889 -0.9263
 3926SOL     OW13771   3.328   6.329   4.295  0.2468  0.0155 -0.6017
 3926SOL    HW113772   3.327   6.380   4.376  1.7118 -0.3734 -0.3085
 3926SOL    HW213773   3.293   6.243   4.320  0.7265 -0.1137 -0.3610
 3927SOL     OW13774   3.714   6.272   5.548  0.0405  0.3703  0.0611
 3927SOL    HW113775   3.796   6.297   5.590  0.1136  0.4817 -0.1480
 3927SOL    HW213776   3.697   6.341   5.484 -0.9330  1.0746  1.0539
 3928SOL     OW13777   2.696   4.369   3.510  0.0791  0.7467 -0.1216
 3928SOL    HW113778   2.614   4.353   3.557  0.0440 -0.7017 -0.6379
 3928SOL    HW213779   2.754   4.408   3.576  0.1206 -1.4424  1.2287
 3929SOL     OW13780   7.980   4.401   4.272  0.6602 -0.0332  0.5459
 3929SOL    HW113781   8.009   4.489   4.295  1.8047 -0.8482  2.4147
 3929SOL    HW213782   7.965   4.405   4.177  1.8511  1.8370  0.3864
 3930SOL     OW13783   7.660   1.983   4.134 -0.1466 -0.1192 -0.0718
 3930SOL    HW113784   7.718   1.950   4.065 -1.9341 -2.7563 -0.4743
 3930SOL    HW213785   7.718   2.003   4.207  1.4968 -0.0836 -1.3247
 3931SOL     OW13786   3.216   4.672   5.774 -0.6005  0.0888 -0.3750
 3931SOL    HW113787   3.188   4.581   5.776  0.4633 -0.2390  0.1686
 3931SOL    HW213788   3.192   4.702   5.686 -0.8466 -0.7501 -0.6045
 3932SOL     OW13789   0.214   1.554   1.718 -0.8511 -0.1046 -0.1834
 3932SOL    HW113790   0.174   1.472   1.692 -3.8135  1.1700  0.0302
 3932SOL    HW213791   0.168   1.621   1.667 -1.7307  1.8081  2.8825
 3933SOL     OW13792   3.072   6.617   5.196  0.1191  0.7100 -0.1632
 3933SOL    HW113793   3.061   6.556   5.269  0.7953  1.6739  0.7735
 3933SOL    HW213794   3.133   6.683   5.229 -1.2973  2.4152 -0.8098
 3934SOL     OW13795   3.525   6.157   1.584 -0.1749  0.4270  0.5115
 3934SOL    HW113796   3.598   6.218   1.590  0.4362 -0.2022 -0.1860
 3934SOL    HW213797   3.512   6.126   1.673  1.5176 -0.6845  0.4258
 3935SOL     OW13798   2.706   1.749   0.275 -0.4273  0.4321 -0.1141
 3935SOL    HW113799   2.721   1.672   0.220  0.5718  1.0432 -0.7272
 3935SOL    HW213800   2.790   1.764   0.319 -0.2696  1.7950 -0.8261
 3936SOL     OW13801   2.557   0.459   7.926  0.0300 -0.5419  0.1528
 3936SOL    HW113802   2.622   0.445   7.857  1.4809  2.4778  0.7637
 3936SOL    HW213803   2.484   0.503   7.882 -0.2217 -1.0465  0.0609
 3937SOL     OW13804   0.071   2.450   7.043  0.5252 -0.0921 -0.1923
 3937SOL    HW113805   0.033   2.527   7.086  1.4091  0.6340 -0.6788
 3937SOL    HW213806   0.048   2.461   6.951  0.2719 -0.6600 -0.2023
 3938SOL     OW13807   0.661   7.495   6.950 -0.1488  0.0220  0.6954
 3938SOL    HW113808   0.641   7.581   6.986  1.0333  0.1194  1.1731
 3938SOL    HW213809   0.696   7.512   6.863 -2.5608 -0.1842 -0.3818
 3939SOL     OW13810   6.271   0.884   1.882  0.9004 -0.2968  0.0829
 3939SOL    HW113811   6.348   0.939   1.872  1.9383 -1.4924  1.1183
 3939SOL    HW213812   6.305   0.802   1.918 -0.9790 -0.3863  1.8692
 3940SOL     OW13813   3.461   0.035   1.350 -0.0157  0.2298  0.5132
 3940SOL    HW113814   3.513   0.021   1.429  0.7260 -0.3252 -0.0556
 3940SOL    HW213815   3.405  -0.042   1.343  0.3953 -0.0440  0.1519
 3941SOL     OW13816   4.812   7.310   3.523 -0.1241  0.3537  0.1506
 3941SOL    HW113817   4.748   7.354   3.467  0.7232  1.5190  0.0470
 3941SOL    HW213818   4.897   7.334   3.485  0.3957 -0.5401  0.7181
 3942SOL     OW13819   2.657   6.342   8.263 -0.3208  0.3830 -0.3632
 3942SOL    HW113820   2.694   6.410   8.206 -0.2274  0.2176 -0.4987
 3942SOL    HW213821   2.566   6.370   8.275 -0.0732  0.9518  0.2231
 3943SOL     OW13822   6.012   0.893   2.957 -0.6997 -0.4100  0.1577
 3943SOL    HW113823   5.996   0.843   3.037  0.0394 -0.3815  0.3266
 3943SOL    HW213824   6.062   0.969   2.986 -1.1465  0.0305 -0.2145
 3944SOL     OW13825   1.784   1.013   7.367 -0.0013 -0.0799  0.2286
 3944SOL    HW113826   1.818   1.009   7.278  0.0170  0.6327  0.1949
 3944SOL    HW213827   1.756   1.104   7.378  0.1157 -0.1260  0.9876
 3945SOL     OW13828   0.937   7.104   6.382  0.3904  0.0984  0.0562
 3945SOL    HW113829   0.853   7.120   6.427  0.8576  1.1090  0.6110
 3945SOL    HW213830   0.917   7.036   6.318 -0.8160  0.1904  0.3012
 3946SOL     OW13831   4.229   6.967   2.058  0.0186  0.3529 -0.6427
 3946SOL    HW113832   4.270   6.949   1.973  1.2594 -1.1088  0.2059
 3946SOL    HW213833   4.230   6.883   2.104 -0.6410  1.0961  0.8111
 3947SOL     OW13834   1.030   5.715   5.486 -0.3950  0.1398 -0.3933
 3947SOL    HW113835   0.942   5.744   5.510  0.8385  3.6711  0.5357
 3947SOL    HW213836   1.073   5.698   5.570  0.8837  2.4003 -0.4890
 3948SOL     OW13837   1.381   2.807   8.734  0.5776  0.3033 -0.7414
 3948SOL    HW113838   1.380   2.887   8.787  0.1430 -0.8179  1.0443
 3948SOL    HW213839   1.288   2.785   8.722  0.6956 -0.8698  0.3212
 3949SOL     OW13840   5.141   4.297   7.174  0.2035 -0.3213 -0.4543
 3949SOL    HW113841   5.096   4.346   7.242  1.1004 -1.5402  1.0781
 3949SOL    HW213842   5.233   4.321   7.183  0.3141 -0.3035 -1.4382
 3950SOL     OW13843   6.305   7.439   5.511 -0.1840  0.1199  0.4449
 3950SOL    HW113844   6.210   7.444   5.522 -0.2823 -0.2493 -0.2106
 3950SOL    HW213845   6.330   7.354   5.546 -0.5857 -1.3581 -2.5533
 3951SOL     OW13846   3.532   6.502   7.423  0.6421  0.0746 -1.1803
 3951SOL    HW113847   3.624   6.527   7.418  0.4867  1.1048  0.3218
 3951SOL    HW213848   3.490   6.574   7.470 -0.5394 -1.3083  0.0136
 3952SOL     OW13849   7.472   0.429   2.121  0.1939  0.3383  0.0143
 3952SOL    HW113850   7.464   0.493   2.191  2.1404 -0.9334  1.4844
 3952SOL    HW213851   7.550   0.455   2.072 -0.1870  0.2460 -0.6588
 3953SOL     OW13852   2.517   7.843   8.779  0.0740 -0.2804  0.1186
 3953SOL    HW113853   2.498   7.881   8.864 -0.3714  0.6161 -0.3722
 3953SOL    HW213854   2.556   7.758   8.799 -0.5157 -0.3105  1.2059
 3954SOL     OW13855   7.905   5.019   5.607  0.1188  0.3608 -0.4608
 3954SOL    HW113856   7.883   5.014   5.700 -2.4350 -0.2908 -1.0231
 3954SOL    HW213857   7.892   5.111   5.585 -3.1181 -0.0662 -0.8933
 3955SOL     OW13858   2.471   2.607   8.765  0.5023  0.0634 -0.3335
 3955SOL    HW113859   2.551   2.658   8.776  2.2803 -2.5570  0.0248
 3955SOL    HW213860   2.472   2.545   8.838 -2.5166  0.6669  0.3436
 3956SOL     OW13861   5.660   1.396   5.920 -0.3435  0.2258  0.2203
 3956SOL    HW113862   5.630   1.478   5.960 -0.3953 -0.1431  0.9584
 3956SOL    HW213863   5.584   1.339   5.922  0.1501 -0.4247  1.3144
 3957SOL     OW13864   5.755   8.653   3.984  0.2630 -0.2056  0.4711
 3957SOL    HW113865   5.741   8.658   4.078 -0.6357  3.0016  0.2776
 3957SOL    HW213866   5.837   8.700   3.969  0.4760 -0.8139 -0.3409
 3958SOL     OW13867   2.591   1.786   0.551  0.2833 -0.2283 -0.1810
 3958SOL    HW113868   2.499   1.788   0.577  0.2141  1.6186 -0.4440
 3958SOL    HW213869   2.619   1.696   0.569 -1.2936 -0.5606  0.8160
 3959SOL     OW13870   8.849   8.626   3.028  0.2745  0.7002  0.6333
 3959SOL    HW113871   8.760   8.629   2.992  0.2849  0.3560  0.5714
 3959SOL    HW213872   8.904   8.603   2.953  0.4902  1.4696  0.5462
 3960SOL     OW13873   4.631   2.745   3.685  0.0229  0.5061  0.0299
 3960SOL    HW113874   4.691   2.766   3.756 -1.3219 -0.4339  1.4986
 3960SOL    HW213875   4.572   2.820   3.680 -2.8841 -1.2987  3.2475
 3961SOL     OW13876   4.193   5.008   6.871  0.3254  0.0658  0.3323
 3961SOL    HW113877   4.144   4.965   6.800  2.7879 -0.0404 -1.4572
 3961SOL    HW213878   4.210   5.096   6.837  2.0170 -0.1666  0.5053
 3962SOL     OW13879   6.162   7.675   0.465 -0.3985 -1.0238  0.7400
 3962SOL    HW113880   6.213   7.730   0.525 -0.3515 -0.4685  0.1985
 3962SOL    HW213881   6.084   7.727   0.445 -0.0515 -0.8747 -0.2790
 3963SOL     OW13882   2.346   8.834   3.459 -0.1667 -0.3603 -0.4296
 3963SOL    HW113883   2.351   8.815   3.553  2.3898 -1.0289 -0.6185
 3963SOL    HW213884   2.292   8.913   3.453 -1.2849 -0.9216  1.4828
 3964SOL     OW13885   6.193   7.956   0.021 -0.2662 -0.0942 -0.4664
 3964SOL    HW113886   6.108   7.919  -0.003 -1.3246 -0.4385  3.2748
 3964SOL    HW213887   6.220   7.908   0.099  4.0920 -0.8945 -2.1372
 3965SOL     OW13888   0.875   0.817   1.129 -0.0771 -0.4623 -0.9664
 3965SOL    HW113889   0.931   0.767   1.187  0.1732 -0.6692 -1.3843
 3965SOL    HW213890   0.852   0.895   1.180  1.1085 -0.0565 -1.0148
 3966SOL     OW13891   1.049   8.618   2.942  0.3194  0.1190 -0.5312
 3966SOL    HW113892   1.072   8.562   2.867  0.4233  0.4939 -0.7876
 3966SOL    HW213893   0.967   8.660   2.916 -0.7161 -1.2407  0.3972
 3967SOL     OW13894   2.570   7.084   4.474  0.2148  0.5115  0.0525
 3967SOL    HW113895   2.522   7.062   4.553  0.3827  1.1367  0.3352
 3967SOL    HW213896   2.532   7.028   4.406 -0.6490  0.7328  0.3502
 3968SOL     OW13897   6.614   4.187   0.998  0.5557 -0.5501  0.6325
 3968SOL    HW113898   6.709   4.188   0.997  0.7293 -4.2821  0.6240
 3968SOL    HW213899   6.591   4.172   1.090  0.0850 -1.2700  0.4096
 3969SOL     OW13900   1.005   1.730   8.133  0.5332 -0.3808 -0.1206
 3969SOL    HW113901   1.081   1.706   8.185 -0.6235 -0.6515  1.5203
 3969SOL    HW213902   0.935   1.742   8.197 -0.1355  2.7875 -1.2461
 3970SOL     OW13903   4.476   0.526   1.233  0.4285 -0.4931 -0.7389
 3970SOL    HW113904   4.422   0.518   1.312  2.4881 -1.9488  0.6502
 3970SOL    HW213905   4.486   0.620   1.221 -2.1573 -0.1755 -0.9422
 3971SOL     OW13906   6.432   0.314   6.435  0.2064 -0.2512  0.3631
 3971SOL    HW113907   6.482   0.241   6.398 -0.3258 -1.4901  1.9687
 3971SOL    HW213908   6.483   0.343   6.511 -0.7011 -0.5151  1.1043
 3972SOL     OW13909   5.342   4.621   2.797 -0.1078 -0.1305 -0.5365
 3972SOL    HW113910   5.315   4.637   2.707 -1.1528 -2.2784 -0.6752
 3972SOL    HW213911   5.353   4.708   2.835 -0.6840  0.8218 -2.4341
 3973SOL     OW13912   6.524   8.203   8.297  0.0387  0.1626  1.0394
 3973SOL    HW113913   6.471   8.172   8.370 -2.4427 -0.0090 -0.7256
 3973SOL    HW213914   6.542   8.125   8.245  0.0514  0.5641  0.4216
 3974SOL     OW13915   6.034   3.023   3.634 -0.2362 -0.0370 -0.0845
 3974SOL    HW113916   6.102   3.066   3.582 -0.2589 -0.8325 -0.7878
 3974SOL    HW213917   6.082   2.978   3.704 -0.0944 -0.1177 -0.2360
 3975SOL     OW13918   6.763   2.060   5.862  0.5683 -0.4422 -0.5281
 3975SOL    HW113919   6.703   2.008   5.915  1.3290  0.7223  1.6462
 3975SOL    HW213920   6.707   2.116   5.809 -0.3181  0.3505  1.1723
 3976SOL     OW13921   4.739   8.645   8.291  0.0736  0.2180  0.0932
 3976SOL    HW113922   4.737   8.704   8.216 -0.4977  0.7851  0.5433
 3976SOL    HW213923   4.765   8.700   8.365  0.8111 -0.3719  0.2926
 3977SOL     OW13924   6.625   3.084   5.421  0.3947  0.5104  0.2210
 3977SOL    HW113925   6.664   3.148   5.361 -0.7030  0.6611 -0.3618
 3977SOL    HW213926   6.689   3.013   5.425 -0.0924 -0.1808 -2.3302
 3978SOL     OW13927   5.138   7.590   5.321 -0.3086  0.0115 -0.4681
 3978SOL    HW113928   5.097   7.598   5.235  2.1495 -0.6536 -1.7877
 3978SOL    HW213929   5.226   7.627   5.310 -0.2923  0.9663  2.1013
 3979SOL     OW13930   7.083   8.211   2.183  0.3156  0.3133  0.3122
 3979SOL    HW113931   7.114   8.298   2.160 -1.4645  0.6880 -0.8728
 3979SOL    HW213932   7.142   8.182   2.253  1.8715  1.8297 -0.2915
 3980SOL     OW13933   2.217   7.110   7.619  0.2493  0.0880  0.4293
 3980SOL    HW113934   2.291   7.052   7.639 -0.5216 -0.7904  0.8361
 3980SOL    HW213935   2.230   7.186   7.676  0.5401 -0.3178  0.9097
 3981SOL     OW13936   0.603   3.803   2.199 -0.6096 -0.6032 -0.1125
 3981SOL    HW113937   0.587   3.795   2.105 -0.1507  1.2960 -0.4025
 3981SOL    HW213938   0.697   3.794   2.209 -0.6925 -1.1448  0.2157
 3982SOL     OW13939   5.894   0.652   7.486  0.5714  0.5814  0.0229
 3982SOL    HW113940   5.840   0.579   7.516  0.8525  0.3723  0.0225
 3982SOL    HW213941   5.977   0.640   7.532  0.9759  0.3055 -0.7746
 3983SOL     OW13942   2.319   4.688   8.384  0.7119 -0.0565 -1.0510
 3983SOL    HW113943   2.309   4.676   8.290  0.5441  0.4272 -1.0959
 3983SOL    HW213944   2.368   4.769   8.393  1.7148 -0.6845 -0.7427
 3984SOL     OW13945   3.073   8.096   0.784  0.3969  0.0729  0.2379
 3984SOL    HW113946   3.150   8.145   0.814  0.7642 -0.7948  0.7396
 3984SOL    HW213947   3.020   8.161   0.737  1.6641  0.5821 -0.5486
 3985SOL     OW13948   2.945   5.303   8.345 -0.4194 -0.0438 -0.3077
 3985SOL    HW113949   3.003   5.308   8.421 -2.5413  0.3443  1.3719
 3985SOL    HW213950   2.979   5.370   8.285  1.5020 -0.6004  0.0853
 3986SOL     OW13951   7.569   6.754   5.869 -0.0693  0.0412  0.3967
 3986SOL    HW113952   7.540   6.664   5.882 -0.8386  0.3603  0.9326
 3986SOL    HW213953   7.632   6.770   5.939 -1.4464  0.5618  1.5509
 3987SOL     OW13954   5.341   0.941   1.491  0.1871  0.4137  0.5925
 3987SOL    HW113955   5.428   0.921   1.527 -0.1725  0.4121  1.4942
 3987SOL    HW213956   5.356   0.952   1.397  1.3462  1.4299  0.8650
 3988SOL     OW13957   1.209   0.445   7.073  0.2105  0.3101 -0.0638
 3988SOL    HW113958   1.213   0.540   7.058  0.9399 -0.0175 -2.2269
 3988SOL    HW213959   1.152   0.412   7.005  0.8197 -0.9293 -0.0059
 3989SOL     OW13960   7.354   0.365   8.356  0.3127 -0.0226  0.3666
 3989SOL    HW113961   7.290   0.397   8.420  0.0196  1.8553 -0.7859
 3989SOL    HW213962   7.305   0.301   8.304 -0.7409  1.4741 -0.5685
 3990SOL     OW13963   5.727   4.701   7.594 -0.6888  0.1675 -0.0006
 3990SOL    HW113964   5.738   4.780   7.646  0.7525 -0.0234  0.0435
 3990SOL    HW213965   5.790   4.639   7.632 -1.4171 -0.8214 -0.3665
 3991SOL     OW13966   7.539   2.406   7.653 -0.2338  0.2591 -0.0096
 3991SOL    HW113967   7.458   2.362   7.680  0.5145 -0.5898  0.9395
 3991SOL    HW213968   7.511   2.471   7.588 -1.5012 -0.9156 -0.6780
 3992SOL     OW13969   3.384   6.443   5.217  0.1808  0.2387  0.6669
 3992SOL    HW113970   3.355   6.357   5.246 -2.1389  0.7707  0.1268
 3992SOL    HW213971   3.358   6.447   5.125  0.0366  1.5945  0.7471
 3993SOL     OW13972   0.289   4.951   0.825  0.4056 -0.0484  0.3915
 3993SOL    HW113973   0.234   5.017   0.782  0.5734  0.2671  0.6503
 3993SOL    HW213974   0.372   4.955   0.778  0.3768 -0.1620  0.3306
 3994SOL     OW13975   8.323   0.301   7.626  0.1823  0.2334 -0.0530
 3994SOL    HW113976   8.396   0.334   7.678  0.3810 -0.2095 -0.0507
 3994SOL    HW213977   8.288   0.229   7.678  0.1060  0.0742 -0.3286
 3995SOL     OW13978   3.837   0.902   5.338 -0.1440  0.5756  0.2320
 3995SOL    HW113979   3.833   0.848   5.259 -0.4476 -0.5843  1.0227
 3995SOL    HW213980   3.892   0.853   5.398 -1.1940  0.6679  1.3145
 3996SOL     OW13981   6.180   1.227   4.139  0.3467 -0.1529 -0.1491
 3996SOL    HW113982   6.184   1.262   4.228  1.1612 -2.4224  0.7845
 3996SOL    HW213983   6.270   1.237   4.106  1.0362 -2.6231  0.7361
 3997SOL     OW13984   2.882   1.660   4.882  0.2656 -0.0612 -0.5935
 3997SOL    HW113985   2.969   1.656   4.923 -0.4001 -0.5230  0.8163
 3997SOL    HW213986   2.828   1.600   4.933 -1.1976  1.0858 -0.7301
 3998SOL     OW13987   0.648   0.803   4.447 -0.2454  0.4492 -0.3328
 3998SOL    HW113988   0.659   0.866   4.518 -2.1701  1.2890 -0.7017
 3998SOL    HW213989   0.577   0.746   4.476  0.0414 -0.2268 -0.9146
 3999SOL     OW13990   7.381   8.138   3.849  0.5916  0.0909  0.1423
 3999SOL    HW113991   7.431   8.160   3.770  0.7468  0.8666  0.4504
 3999SOL    HW213992   7.309   8.201   3.849 -0.1418 -0.7317 -0.0570
 4000SOL     OW13993   1.691   6.352   8.057 -0.0691 -0.2713 -0.2898
 4000SOL    HW113994   1.692   6.369   7.962 -0.6824 -0.9293 -0.4206
 4000SOL    HW213995   1.782   6.367   8.084  0.2585 -0.7220 -1.1031
 4001SOL     OW13996   4.341   2.879   4.531  0.2770  0.3955  0.0766
 4001SOL    HW113997   4.361   2.964   4.492 -0.7151  0.8221  0.4652
 4001SOL    HW213998   4.387   2.880   4.615  1.3731 -0.0151 -0.4938
 4002SOL     OW13999   2.921   4.682   5.263  0.2826  1.0351 -0.1377
 4002SOL    HW114000   2.916   4.620   5.335  0.8628  0.8494 -0.2509
 4002SOL    HW214001   2.860   4.649   5.198 -0.7436  1.5690  0.5367
 4003SOL     OW14002   2.142   6.390   8.350  0.5904 -0.4101 -0.1718
 4003SOL    HW114003   2.086   6.365   8.277 -0.0224  1.3331 -0.3591
 4003SOL    HW214004   2.151   6.485   8.341  0.6141 -0.1683  1.9419
 4004SOL     OW14005   6.607   6.319   1.603 -0.2764  0.0554 -0.5707
 4004SOL    HW114006   6.690   6.315   1.554 -0.9465  0.5637 -1.7946
 4004SOL    HW214007   6.593   6.230   1.634  0.5915 -0.0956 -0.5811
 4005SOL     OW14008   2.800   0.109   7.129 -0.2702  0.7097 -0.1815
 4005SOL    HW114009   2.862   0.135   7.198 -0.4160  1.2606 -0.2517
 4005SOL    HW214010   2.851   0.053   7.071 -0.6613 -1.4701  1.4498
 4006SOL     OW14011   5.860   1.753   0.643  0.9857  0.2655  0.3025
 4006SOL    HW114012   5.954   1.752   0.661  1.1694 -0.9820 -0.5849
 4006SOL    HW214013   5.851   1.814   0.570  0.6524  2.8173  2.3318
 4007SOL     OW14014   5.854   7.889   5.282  0.6557 -0.0890  0.2323
 4007SOL    HW114015   5.910   7.912   5.207  0.5672 -1.4219 -0.2853
 4007SOL    HW214016   5.765   7.909   5.252  0.6664 -0.1327  0.1698
 4008SOL     OW14017   1.554   8.213   2.002  1.0355  0.2732 -0.3940
 4008SOL    HW114018   1.551   8.189   2.094 -1.1881 -0.4662 -0.6154
 4008SOL    HW214019   1.600   8.297   2.000  1.5721  0.0409  1.3035
 4009SOL     OW14020   5.601   7.092   8.174 -0.3455  0.0155 -0.2648
 4009SOL    HW114021   5.581   7.039   8.251 -2.6920  0.1923 -0.6604
 4009SOL    HW214022   5.695   7.109   8.180 -0.2985 -0.6743  2.0935
 4010SOL     OW14023   4.770   5.316   5.051 -0.3164  0.4264  0.1549
 4010SOL    HW114024   4.725   5.398   5.070 -0.0554  0.9633 -1.3766
 4010SOL    HW214025   4.720   5.278   4.978  1.0509  0.5020 -0.8508
 4011SOL     OW14026   4.029   3.473   6.618  0.2880 -0.0949  0.4958
 4011SOL    HW114027   3.981   3.549   6.588 -0.9517 -1.6195 -1.6422
 4011SOL    HW214028   4.116   3.481   6.579  0.5136  0.7154  1.1468
 4012SOL     OW14029   4.447   1.177   1.628  0.0810  0.2580  0.3213
 4012SOL    HW114030   4.445   1.084   1.605 -1.2850 -0.0000  1.3124
 4012SOL    HW214031   4.376   1.215   1.577  0.4507  0.7110  0.1424
 4013SOL     OW14032   5.136   5.435   8.349  0.3438 -0.1737  0.9906
 4013SOL    HW114033   5.182   5.507   8.307 -0.3553  0.1780  0.8122
 4013SOL    HW214034   5.178   5.356   8.315 -1.0425  0.0364 -1.4696
 4014SOL     OW14035   1.535   7.911   2.720  0.1906  0.1578  0.3084
 4014SOL    HW114036   1.604   7.960   2.766 -0.3259  1.4404 -0.2416
 4014SOL    HW214037   1.484   7.978   2.675 -1.4531 -0.7623  0.7211
 4015SOL     OW14038   2.772   6.686   4.756  0.0351  0.5617 -0.2196
 4015SOL    HW114039   2.794   6.705   4.847 -0.2928 -0.1310  0.0133
 4015SOL    HW214040   2.845   6.722   4.705  2.5092 -2.8753  0.5954
 4016SOL     OW14041   8.295   5.548   3.969  0.3839 -0.3578 -0.2350
 4016SOL    HW114042   8.387   5.556   3.944  0.0567  1.7667 -0.8977
 4016SOL    HW214043   8.292   5.578   4.060 -0.0478  2.6833 -1.1444
 4017SOL     OW14044   7.067   0.353   4.379 -0.2320 -0.2177 -0.0036
 4017SOL    HW114045   7.146   0.390   4.419  0.9164 -2.4386 -0.1184
 4017SOL    HW214046   6.999   0.364   4.447  0.1266  1.6170  0.1303
 4018SOL     OW14047   6.639   3.111   4.234  0.0775 -0.0577 -0.3913
 4018SOL    HW114048   6.637   3.040   4.169  0.7012 -1.2935  0.8682
 4018SOL    HW214049   6.634   3.191   4.182 -0.4998 -1.0076 -1.8870
 4019SOL     OW14050   4.508   7.753   5.357 -0.8112  0.2680 -0.1370
 4019SOL    HW114051   4.591   7.738   5.311 -0.7255 -0.0038  0.1029
 4019SOL    HW214052   4.533   7.786   5.443 -0.9302 -0.2295  0.0962
 4020SOL     OW14053   8.014   7.542   4.683  0.0030 -0.0548  0.5226
 4020SOL    HW114054   8.064   7.623   4.699  2.9715 -1.5499 -0.5273
 4020SOL    HW214055   8.000   7.541   4.588 -3.3738  0.9275  0.8612
 4021SOL     OW14056   1.216   2.102   4.743 -0.8338 -0.2163  0.2033
 4021SOL    HW114057   1.207   2.052   4.824  0.9881 -0.7390  0.1156
 4021SOL    HW214058   1.308   2.094   4.719 -1.8323 -2.8579 -3.6940
 4022SOL     OW14059   7.916   6.062   1.138  0.0856 -0.8309  0.3464
 4022SOL    HW114060   7.990   6.082   1.195 -1.4170  1.3721  1.6715
 4022SOL    HW214061   7.911   6.138   1.079 -0.1452 -1.7244 -0.8144
 4023SOL     OW14062   5.241   7.892   5.912  0.2334  0.1063 -0.3469
 4023SOL    HW114063   5.234   7.827   5.983  0.2213 -0.6085 -0.9847
 4023SOL    HW214064   5.261   7.974   5.957 -0.2795 -0.2249  0.5307
 4024SOL     OW14065   1.415   4.397   8.734  0.3257  0.1423 -0.4064
 4024SOL    HW114066   1.415   4.314   8.781 -1.0819  0.5587  0.4027
 4024SOL    HW214067   1.370   4.458   8.792  1.3820  1.5044 -0.9559
 4025SOL     OW14068   3.525   0.440   1.944 -0.5350 -0.3116  0.0081
 4025SOL    HW114069   3.520   0.534   1.929 -0.3256 -0.2909  0.0571
 4025SOL    HW214070   3.601   0.429   2.001  0.4365 -0.6550 -1.2986
 4026SOL     OW14071   7.325   4.093   6.676 -0.0335 -0.3582 -0.4954
 4026SOL    HW114072   7.243   4.135   6.650 -0.0412 -0.6301 -0.9261
 4026SOL    HW214073   7.391   4.128   6.616  1.0371  2.8913  2.2313
 4027SOL     OW14074   8.566   1.735   5.796  0.4728  0.4578  0.1181
 4027SOL    HW114075   8.548   1.716   5.888  4.3522 -0.0139  0.9562
 4027SOL    HW214076   8.593   1.827   5.796  2.1162  0.0158 -0.1505
 4028SOL     OW14077   7.913   2.636   4.580 -0.5655 -0.0847 -0.4342
 4028SOL    HW114078   8.008   2.626   4.580 -0.4419  0.0256  3.1247
 4028SOL    HW214079   7.896   2.706   4.516  2.0104  1.6566  0.6417
 4029SOL     OW14080   1.874   0.558   7.669 -0.4222 -0.1188 -0.2537
 4029SOL    HW114081   1.889   0.463   7.670  0.0700 -0.0867  2.2013
 4029SOL    HW214082   1.949   0.594   7.623  0.2540 -0.8207  0.2870
 4030SOL     OW14083   1.137   0.199   3.375  0.1305  0.3137  0.2394
 4030SOL    HW114084   1.203   0.136   3.403  0.1668  0.8033  1.3054
 4030SOL    HW214085   1.054   0.157   3.396  0.1578  0.7304  1.2828
 4031SOL     OW14086   3.392   0.894   2.355 -0.7923 -0.5290  0.1206
 4031SOL    HW114087   3.359   0.944   2.429 -1.3968  0.0837 -0.5602
 4031SOL    HW214088   3.403   0.805   2.390 -1.9521 -0.4637  0.7016
 4032SOL     OW14089   0.234   3.479   6.622  0.0655  0.0703  0.2255
 4032SOL    HW114090   0.215   3.511   6.710  0.4404  0.7413  0.0692
 4032SOL    HW214091   0.161   3.509   6.569  0.7894  1.4007 -0.0814
 4033SOL     OW14092   3.570   7.946   6.791  0.5165  0.0410 -0.3500
 4033SOL    HW114093   3.590   7.871   6.735  1.9615  0.7474 -0.8258
 4033SOL    HW214094   3.485   7.924   6.831  1.8696 -2.8432  1.2437
 4034SOL     OW14095   3.603   2.416   0.190 -0.2466  0.2085  0.0897
 4034SOL    HW114096   3.683   2.362   0.193  0.5915  1.3772 -0.5227
 4034SOL    HW214097   3.536   2.356   0.157  0.2158 -0.9694  1.2159
 4035SOL     OW14098   8.064   8.504   0.723 -0.2884  0.3700  0.2740
 4035SOL    HW114099   8.098   8.465   0.804 -1.0567  0.1444  0.4911
 4035SOL    HW214100   7.986   8.553   0.750 -0.4135  0.4952 -0.2936
 4036SOL     OW14101   4.770   0.541   0.675  0.3540  0.3536 -0.1507
 4036SOL    HW114102   4.812   0.510   0.755 -1.0442  0.0657  0.4986
 4036SOL    HW214103   4.842   0.555   0.614  1.6075  1.8449  1.5473
 4037SOL     OW14104   0.262   2.291   0.165  0.2592  0.7602  0.0956
 4037SOL    HW114105   0.193   2.288   0.231 -1.4605  1.2397 -1.6082
 4037SOL    HW214106   0.272   2.201   0.136 -2.5249  1.1545 -2.4253
 4038SOL     OW14107   4.763   1.458   8.146  0.3035  0.7242 -0.4548
 4038SOL    HW114108   4.734   1.445   8.055  0.6513  0.9055 -0.5913
 4038SOL    HW214109   4.803   1.545   8.146 -1.1769  1.4411  0.2473
 4039SOL     OW14110   7.193   2.921   8.230  0.3039 -0.0049 -0.0076
 4039SOL    HW114111   7.166   2.971   8.153  1.0325 -2.8521 -2.2894
 4039SOL    HW214112   7.288   2.912   8.221  0.4327 -0.1947  1.3601
 4040SOL     OW14113   7.131   4.898   8.274  0.7439  0.0876  0.2266
 4040SOL    HW114114   7.218   4.863   8.291  1.2566  1.1106 -0.2028
 4040SOL    HW214115   7.112   4.954   8.350  0.2680 -0.4606  0.5249
 4041SOL     OW14116   7.272   7.769   5.287  0.5664  0.3455 -0.2353
 4041SOL    HW114117   7.301   7.855   5.318  1.0198 -0.8342  3.0146
 4041SOL    HW214118   7.200   7.745   5.346 -0.7097 -0.8366 -2.1473
 4042SOL     OW14119   4.411   1.474   1.335 -0.5126 -0.0811  0.1071
 4042SOL    HW114120   4.471   1.406   1.304 -0.5587  0.0820 -0.3381
 4042SOL    HW214121   4.410   1.539   1.265  0.0909  0.7341  0.8391
 4043SOL     OW14122   0.637   0.006   5.602 -0.0394  0.3476 -0.4550
 4043SOL    HW114123   0.564   0.054   5.641  0.8848  0.6686  0.9774
 4043SOL    HW214124   0.610  -0.010   5.511 -0.8331  2.6506 -0.6867
 4044SOL     OW14125   2.121   8.684   1.951 -0.2954 -0.4008  0.0336
 4044SOL    HW114126   2.074   8.601   1.939  0.2620 -0.7010 -0.1381
 4044SOL    HW214127   2.159   8.702   1.865 -1.8735  0.9658 -0.4128
 4045SOL     OW14128   8.666   3.896   4.791 -0.3697 -0.3754  0.0876
 4045SOL    HW114129   8.574   3.868   4.801 -0.7715  0.9168  0.2392
 4045SOL    HW214130   8.685   3.944   4.872 -0.2671  1.1952 -0.8122
 4046SOL     OW14131   6.922   7.000   7.019  0.6417 -0.2745  0.2638
 4046SOL    HW114132   6.932   6.931   6.954 -1.5602  0.7131 -1.2433
 4046SOL    HW214133   6.836   7.038   7.002  0.8451  1.4241  2.4406
 4047SOL     OW14134   5.066   2.158   1.658  0.2182  0.5566  0.1774
 4047SOL    HW114135   4.979   2.123   1.639  0.0556  1.0798 -0.0610
 4047SOL    HW214136   5.095   2.196   1.575 -0.8464  3.6085  1.0988
 4048SOL     OW14137   2.295   7.952   4.193  0.0394  0.4332  0.3672
 4048SOL    HW114138   2.257   8.003   4.121  0.5562  0.3390  0.0196
 4048SOL    HW214139   2.288   7.861   4.164 -0.7574  0.3105  0.9283
 4049SOL     OW14140   2.584   0.970   3.516  0.2369 -0.4315 -0.1729
 4049SOL    HW114141   2.584   1.037   3.449 -0.6549  1.1507  1.3340
 4049SOL    HW214142   2.647   1.000   3.581 -0.2005 -1.0012  0.5438
 4050SOL     OW14143   4.009   7.796   5.237 -0.3479 -0.0901 -0.2801
 4050SOL    HW114144   3.943   7.727   5.226 -0.0948 -0.0524 -2.4577
 4050SOL    HW214145   4.078   7.755   5.290 -1.0486 -0.8724  0.0553
 4051SOL     OW14146   3.356   0.137   5.931  0.7045 -0.2122 -0.7571
 4051SOL    HW114147   3.351   0.192   6.009 -0.2666 -1.2194 -0.0863
 4051SOL    HW214148   3.379   0.050   5.964 -0.9900 -0.9504 -1.4309
 4052SOL     OW14149   7.277   7.481   5.531 -0.1884  0.0706  0.3466
 4052SOL    HW114150   7.242   7.539   5.463 -0.4220 -0.9017 -0.3833
 4052SOL    HW214151   7.210   7.482   5.600 -0.2708  0.5287  0.2645
 4053SOL     OW14152   2.729   3.408   3.669  0.0376 -0.3639 -0.0992
 4053SOL    HW114153   2.654   3.355   3.696 -1.2608 -0.1566 -2.9700
 4053SOL    HW214154   2.783   3.415   3.748 -2.1830 -1.7969  1.6611
 4054SOL     OW14155   7.221   0.313   6.327 -0.2125  0.3360 -0.2432
 4054SOL    HW114156   7.231   0.269   6.243 -0.5144 -2.3495  1.0251
 4054SOL    HW214157   7.310   0.326   6.359 -0.1370 -1.2157  0.2317
 4055SOL     OW14158   1.703   7.660   2.758 -0.3035  0.0909  0.0388
 4055SOL    HW114159   1.677   7.747   2.727  0.0077  0.2786  0.2965
 4055SOL    HW214160   1.622   7.620   2.789 -1.0089 -0.8366 -2.6866
 4056SOL     OW14161   5.391   3.200   8.867  0.4232  0.4928  0.1038
 4056SOL    HW114162   5.357   3.155   8.790  0.0805  0.9301 -0.0053
 4056SOL    HW214163   5.463   3.254   8.834  2.6511 -1.9690  0.6455
 4057SOL     OW14164   6.281   1.873   6.983  0.5306 -0.2289  0.0045
 4057SOL    HW114165   6.238   1.854   6.899  1.7939 -0.7474 -0.5530
 4057SOL    HW214166   6.218   1.845   7.049  0.2872 -1.6293 -0.7821
 4058SOL     OW14167   1.889   5.512   5.781 -0.1770 -0.2702 -0.4822
 4058SOL    HW114168   1.854   5.427   5.755 -1.2713 -0.0944  0.3203
 4058SOL    HW214169   1.927   5.498   5.867 -0.4595  0.0598 -0.2970
 4059SOL     OW14170   1.846   5.054   7.502 -0.2920 -0.5265  0.4870
 4059SOL    HW114171   1.923   5.110   7.510  0.5362 -1.3558 -1.1400
 4059SOL    HW214172   1.774   5.108   7.534  0.3280  1.7882 -1.6635
 4060SOL     OW14173   4.182   5.499   7.920 -0.2725 -0.1920  0.1548
 4060SOL    HW114174   4.249   5.512   7.987 -0.5039 -0.3165  0.4170
 4060SOL    HW214175   4.099   5.514   7.967 -0.3837  1.4148 -0.5041
 4061SOL     OW14176   7.781   3.979   3.867  0.9143 -0.4128  0.0851
 4061SOL    HW114177   7.782   3.884   3.879  0.5473 -0.4661 -0.2696
 4061SOL    HW214178   7.775   3.991   3.772 -1.1976 -0.0634  0.2213
 4062SOL     OW14179   3.569   8.225   0.240 -0.0898 -0.5223 -0.0126
 4062SOL    HW114180   3.618   8.281   0.180  3.3839 -2.3928  0.7486
 4062SOL    HW214181   3.516   8.285   0.292  2.7971  2.0893  0.2427
 4063SOL     OW14182   8.666   4.072   1.839  0.4929 -0.2201 -0.4128
 4063SOL    HW114183   8.588   4.127   1.842  1.1770  0.7552  1.6621
 4063SOL    HW214184   8.635   3.989   1.804 -0.9572  0.8804 -1.8961
 4064SOL     OW14185   8.137   4.952   0.542 -0.0879 -0.7423  0.2131
 4064SOL    HW114186   8.233   4.947   0.548 -0.0158 -0.8777 -0.7746
 4064SOL    HW214187   8.106   4.868   0.575  0.0833 -0.3766  1.3284
 4065SOL     OW14188   3.646   8.496   3.140  0.1785  0.6615  0.6151
 4065SOL    HW114189   3.639   8.453   3.055  1.0621  0.5406  0.5922
 4065SOL    HW214190   3.641   8.589   3.120  0.9125  0.6508  0.3684
 4066SOL     OW14191   2.945   1.424   3.208  0.1692 -0.4965  0.1494
 4066SOL    HW114192   3.005   1.378   3.149 -0.4247  0.0034 -0.8739
 4066SOL    HW214193   2.873   1.452   3.152 -1.3011 -1.5211  1.4370
 4067SOL     OW14194   7.370   7.372   8.179 -0.0874 -0.4120 -0.6054
 4067SOL    HW114195   7.451   7.423   8.177 -0.5183  0.2848 -2.2798
 4067SOL    HW214196   7.393   7.289   8.136  0.1595 -0.9207  0.4895
 4068SOL     OW14197   6.220   1.203   0.595  0.0300 -0.3547  0.3573
 4068SOL    HW114198   6.195   1.122   0.639 -2.9690 -0.0676 -0.6347
 4068SOL    HW214199   6.182   1.272   0.648  0.7816  0.3034  0.0564
 4069SOL     OW14200   5.016   7.855   6.300 -0.1754  0.0565  0.2815
 4069SOL    HW114201   4.978   7.792   6.361 -0.9675 -0.7682 -1.0223
 4069SOL    HW214202   4.962   7.934   6.311  0.8182  0.5444  1.9147
 4070SOL     OW14203   6.840   4.243   7.915 -0.0338  0.2917  0.2708
 4070SOL    HW114204   6.825   4.238   8.009  3.2177 -1.4024  0.8642
 4070SOL    HW214205   6.842   4.152   7.886 -0.0558  0.7518 -1.2354
 4071SOL     OW14206   2.478   6.528   3.302 -0.3697 -0.3558 -0.1842
 4071SOL    HW114207   2.502   6.445   3.343  0.4692 -0.4803 -0.8894
 4071SOL    HW214208   2.407   6.505   3.242  0.7543 -0.8494 -1.3782
 4072SOL     OW14209   6.044   8.615   7.113 -0.0573  0.2034 -0.0595
 4072SOL    HW114210   5.991   8.537   7.125 -0.1390  0.5076  1.9807
 4072SOL    HW214211   5.980   8.686   7.103  0.0125  0.0271 -2.2662
 4073SOL     OW14212   4.689   7.000   0.403 -0.2231 -0.2854 -0.1996
 4073SOL    HW114213   4.780   6.982   0.428  0.0072  0.9522 -0.1155
 4073SOL    HW214214   4.692   7.085   0.359 -0.8875 -1.5379 -2.9112
 4074SOL     OW14215   6.767   5.450   8.445 -0.0763  0.9222 -0.0396
 4074SOL    HW114216   6.712   5.430   8.370 -0.5308 -0.4238  0.6268
 4074SOL    HW214217   6.848   5.401   8.430  0.6886  2.3232 -0.6603
 4075SOL     OW14218   0.118   2.930   6.079 -0.1016  0.1390 -0.4193
 4075SOL    HW114219   0.136   2.836   6.071 -0.1790  0.0642  0.2519
 4075SOL    HW214220   0.032   2.935   6.122  0.2071  0.5148  0.1737
 4076SOL     OW14221   2.552   0.824   6.928  0.3995  0.1553 -0.7583
 4076SOL    HW114222   2.538   0.818   6.834 -0.7794  0.8503 -0.6380
 4076SOL    HW214223   2.464   0.828   6.966  0.7915  3.7525  0.0914
 4077SOL     OW14224   0.965   5.201   2.008  0.3158  0.1676  0.3846
 4077SOL    HW114225   1.024   5.128   2.027 -0.6592 -0.7113  0.1594
 4077SOL    HW214226   0.925   5.178   1.924  2.1233  2.3829 -1.2023
 4078SOL     OW14227   7.779   6.344   4.406 -0.7958 -0.0139  0.2660
 4078SOL    HW114228   7.858   6.330   4.355 -0.4449 -1.3362  1.1349
 4078SOL    HW214229   7.767   6.439   4.406 -0.6797  0.0536 -2.0365
 4079SOL     OW14230   4.793   0.829   0.887  0.4217  0.2864 -0.0586
 4079SOL    HW114231   4.819   0.917   0.913  1.1877  0.0547 -0.0204
 4079SOL    HW214232   4.709   0.841   0.842  0.3939  1.0002  0.1789
 4080SOL     OW14233   3.563   5.412   7.962  0.4522  0.0273 -0.5490
 4080SOL    HW114234   3.622   5.457   7.902 -1.4082  1.4737 -1.4011
 4080SOL    HW214235   3.532   5.480   8.021 -1.7501 -0.2409 -1.2982
 4081SOL     OW14236   1.530   8.334   7.600  0.4001  0.4633  0.4933
 4081SOL    HW114237   1.536   8.424   7.631 -1.3014  0.9652 -0.5114
 4081SOL    HW214238   1.494   8.341   7.512  3.0431 -1.0422 -0.8439
 4082SOL     OW14239   6.538   6.367   4.132  0.0228  0.6447 -0.0905
 4082SOL    HW114240   6.587   6.287   4.111 -1.9063 -0.0843 -2.3779
 4082SOL    HW214241   6.558   6.427   4.060  0.2931  1.6927  0.8360
 4083SOL     OW14242   3.932   0.038   1.628 -0.0425 -0.0344 -0.3424
 4083SOL    HW114243   4.023   0.011   1.640  0.2804  1.4882  0.9519
 4083SOL    HW214244   3.890   0.021   1.713 -0.3104  1.5927 -0.1177
 4084SOL     OW14245   6.186   7.640   2.327  0.3010  0.0915 -0.2383
 4084SOL    HW114246   6.270   7.682   2.342 -0.2130  1.3956 -0.8069
 4084SOL    HW214247   6.121   7.706   2.352 -0.5429 -0.6591 -0.3881
 4085SOL     OW14248   1.546   3.692   3.093 -0.4266  0.4486  0.6530
 4085SOL    HW114249   1.504   3.761   3.145 -2.3075  0.5667 -0.9367
 4085SOL    HW214250   1.479   3.624   3.085 -0.4247  0.6542 -1.9916
 4086SOL     OW14251   6.930   5.059   2.464 -0.1709  0.2548  0.6358
 4086SOL    HW114252   6.982   5.121   2.413 -1.1529  0.7251  0.1585
 4086SOL    HW214253   6.990   5.025   2.530  0.8453  0.4378 -0.1696
 4087SOL     OW14254   1.507   7.605   7.552 -0.0016 -0.4868  0.4322
 4087SOL    HW114255   1.421   7.564   7.566 -0.9622  1.4510  0.5792
 4087SOL    HW214256   1.522   7.597   7.457 -0.7197 -0.1649  0.2833
 4088SOL     OW14257   7.595   1.556   3.060 -0.0070 -0.4787  0.0934
 4088SOL    HW114258   7.514   1.509   3.079 -0.4697 -0.0998 -0.8762
 4088SOL    HW214259   7.663   1.489   3.063 -0.6352 -1.2083 -1.1200
 4089SOL     OW14260   0.871   4.789   6.103 -0.4415  0.0332  0.5054
 4089SOL    HW114261   0.910   4.703   6.084 -0.4912 -0.4149  2.2598
 4089SOL    HW214262   0.830   4.815   6.020 -0.3532 -1.5875 -0.0937
 4090SOL     OW14263   1.545   7.346   2.893 -0.0643 -0.7565  0.1778
 4090SOL    HW114264   1.629   7.337   2.847 -0.7576  0.6731 -1.4883
 4090SOL    HW214265   1.541   7.268   2.949  3.7375  0.5971  2.7434
 4091SOL     OW14266   0.437   3.809   5.674 -0.2603  0.4513 -0.1340
 4091SOL    HW114267   0.400   3.809   5.763 -0.9659  1.2737 -0.4123
 4091SOL    HW214268   0.371   3.852   5.621  1.7037  3.5213 -0.3715
 4092SOL     OW14269   2.759   8.058   2.142  0.1956 -0.2818 -0.6743
 4092SOL    HW114270   2.771   8.021   2.229  3.5520 -0.6530 -1.1821
 4092SOL    HW214271   2.783   8.150   2.152 -1.1393  0.1171 -0.9021
 4093SOL     OW14272   6.304   0.717   0.040  0.6101  0.0203 -0.3432
 4093SOL    HW114273   6.291   0.764   0.122  1.1125 -0.6141  0.1157
 4093SOL    HW214274   6.399   0.719   0.027  0.6767 -1.1092 -0.1462
 4094SOL     OW14275   5.551   1.652   1.599  0.7071  0.0400 -0.4751
 4094SOL    HW114276   5.600   1.719   1.645  0.0068 -0.4289  1.0231
 4094SOL    HW214277   5.553   1.576   1.657  1.2878 -1.1828 -2.0184
 4095SOL     OW14278   3.832   1.743   0.252 -0.1978  0.0554 -0.1487
 4095SOL    HW114279   3.886   1.790   0.317  0.3012 -0.8869  0.1346
 4095SOL    HW214280   3.896   1.700   0.195 -0.6491 -0.1747 -0.4827
 4096SOL     OW14281   4.357   7.449   2.148 -0.0881 -0.2692 -0.1991
 4096SOL    HW114282   4.439   7.462   2.100  0.3641  3.4311  1.2926
 4096SOL    HW214283   4.289   7.482   2.088 -0.1818 -0.7347 -0.3549
 4097SOL     OW14284   7.715   8.155   1.068  0.8040  0.0094 -0.1299
 4097SOL    HW114285   7.764   8.105   1.002  1.5717 -0.2075  0.5781
 4097SOL    HW214286   7.728   8.246   1.044  1.4946 -0.0493 -0.0187
 4098SOL     OW14287   4.007   2.075   0.563  0.1967  0.6129 -0.3900
 4098SOL    HW114288   3.976   2.065   0.474 -0.3947  1.3919 -0.2878
 4098SOL    HW214289   3.944   2.027   0.617 -0.4688  1.6183 -0.2448
 4099SOL     OW14290   8.001   4.360   3.057  0.2367 -0.5337 -0.0874
 4099SOL    HW114291   8.059   4.431   3.084  0.9453 -0.7153 -1.1026
 4099SOL    HW214292   8.051   4.280   3.072 -0.1534 -0.7597  0.0359
 4100SOL     OW14293   3.357   6.154   5.022  0.1618  0.1942 -0.4684
 4100SOL    HW114294   3.272   6.109   5.026  0.2680 -0.1944 -1.8813
 4100SOL    HW214295   3.417   6.088   4.988  0.7363  0.8562 -0.7539
 4101SOL     OW14296   2.630   2.367   1.824 -0.4509  0.2578  0.4173
 4101SOL    HW114297   2.595   2.337   1.740  1.1821 -1.1410  0.1650
 4101SOL    HW214298   2.554   2.399   1.872 -1.7715 -0.9571 -0.7663
 4102SOL     OW14299   7.429   8.102   0.211 -0.7033  0.2795 -0.4461
 4102SOL    HW114300   7.391   8.014   0.210 -0.3620  0.1293 -1.2237
 4102SOL    HW214301   7.369   8.153   0.265 -0.2309 -0.7144  1.1093
 4103SOL     OW14302   7.900   1.380   4.816  0.3054  0.0733 -0.3882
 4103SOL    HW114303   7.845   1.313   4.776  1.3393 -1.8110  1.1980
 4103SOL    HW214304   7.908   1.353   4.908  1.7030  1.7384  0.0251
 4104SOL     OW14305   3.760   4.936   6.610 -0.4964  0.0881  0.0541
 4104SOL    HW114306   3.703   4.932   6.533  1.4598 -0.7383 -1.4419
 4104SOL    HW214307   3.744   5.023   6.647 -2.2076  0.1301 -0.6768
 4105SOL     OW14308   1.519   0.602   7.593  0.1419 -0.3932 -0.3173
 4105SOL    HW114309   1.589   0.655   7.557 -0.8867  2.6848  1.7629
 4105SOL    HW214310   1.446   0.613   7.531  0.3720 -0.5322 -0.6116
 4106SOL     OW14311   6.838   0.115   3.570 -0.7283 -0.0040 -0.0634
 4106SOL    HW114312   6.763   0.174   3.570 -0.7707  0.0654 -2.7912
 4106SOL    HW214313   6.913   0.171   3.589 -1.2038  0.0559  1.8986
 4107SOL     OW14314   3.962   8.408   6.407  0.7347 -0.0159  0.1789
 4107SOL    HW114315   3.999   8.341   6.349 -0.0961 -0.3929  0.0572
 4107SOL    HW214316   3.872   8.420   6.374  1.1437  1.8320 -0.3817
 4108SOL     OW14317   6.675   8.122   7.209  0.1314  0.1006 -0.4432
 4108SOL    HW114318   6.644   8.050   7.155  2.7546 -0.7008 -1.0200
 4108SOL    HW214319   6.612   8.128   7.281  0.5004 -3.6409  0.3519
 4109SOL     OW14320   1.836   8.101   4.310 -0.3567 -0.1690  0.2200
 4109SOL    HW114321   1.889   8.139   4.380 -0.7571  1.0610 -0.1188
 4109SOL    HW214322   1.779   8.038   4.355 -1.2087  1.2271  1.1417
 4110SOL     OW14323   6.571   2.676   0.525  0.2139 -0.3098  0.5180
 4110SOL    HW114324   6.665   2.658   0.513  0.8580 -0.2273  4.2458
 4110SOL    HW214325   6.566   2.771   0.535 -0.2230 -0.3650  0.8215
 4111SOL     OW14326   6.874   0.608   5.258 -0.3572 -0.6420  0.5921
 4111SOL    HW114327   6.871   0.514   5.239 -0.5584 -0.7686  1.1958
 4111SOL    HW214328   6.822   0.617   5.338 -2.2051  0.2883 -0.6374
 4112SOL     OW14329   3.352   7.067   7.598  0.0457  0.0668  0.0544
 4112SOL    HW114330   3.419   7.124   7.558 -0.4675  0.4622 -0.2515
 4112SOL    HW214331   3.294   7.044   7.525  0.3547 -1.0185  0.1366
 4113SOL     OW14332   3.585   2.534   3.164 -0.0212 -0.2683 -0.5287
 4113SOL    HW114333   3.670   2.555   3.203 -0.2658  1.6452 -0.9702
 4113SOL    HW214334   3.607   2.493   3.080  0.4589 -0.8860 -0.1150
 4114SOL     OW14335   7.686   1.222   8.413 -0.2237 -0.0096  0.4196
 4114SOL    HW114336   7.612   1.268   8.454  0.4066 -0.3647  1.9984
 4114SOL    HW214337   7.646   1.170   8.343 -1.1690  1.5488 -0.2559
 4115SOL     OW14338   3.464   7.851   5.602 -0.1105 -0.7226 -0.3037
 4115SOL    HW114339   3.406   7.774   5.594 -1.2089  0.2138 -1.9736
 4115SOL    HW214340   3.488   7.872   5.512  0.9832  0.3076  0.2063
 4116SOL     OW14341   2.622   0.672   3.523 -0.5883 -0.5686  0.1657
 4116SOL    HW114342   2.685   0.710   3.585  2.2632 -2.6343 -1.2811
 4116SOL    HW214343   2.624   0.578   3.541 -1.5961 -0.9284 -1.4194
 4117SOL     OW14344   0.227   5.701   0.658  0.2606  0.2816 -0.1706
 4117SOL    HW114345   0.286   5.774   0.678 -0.1316  0.3204  0.9319
 4117SOL    HW214346   0.155   5.741   0.610  0.5344  0.4451 -0.4472
 4118SOL     OW14347   2.823   5.331   1.445 -0.3348  0.0049  0.1505
 4118SOL    HW114348   2.863   5.361   1.364  2.2127 -0.6460  1.0437
 4118SOL    HW214349   2.801   5.411   1.493 -0.0319  0.3980 -0.3643
 4119SOL     OW14350   3.178   6.299   6.188 -0.1267 -0.7717 -0.1574
 4119SOL    HW114351   3.123   6.290   6.110  1.2015 -0.0290 -1.2178
 4119SOL    HW214352   3.165   6.390   6.216  1.8198 -0.0367 -1.4515
 4120SOL     OW14353   3.626   7.710   3.924  0.0581 -0.2857  0.3812
 4120SOL    HW114354   3.659   7.768   3.992 -0.4645 -0.1943  0.5597
 4120SOL    HW214355   3.693   7.713   3.856  0.7872 -0.6952  1.0562
 4121SOL     OW14356   3.530   1.632   8.101 -0.3925  0.5558 -0.0477
 4121SOL    HW114357   3.524   1.547   8.058 -2.0661  0.3373  0.5302
 4121SOL    HW214358   3.474   1.690   8.049  1.2542  1.5116 -0.8274
 4122SOL     OW14359   4.872   3.790   4.625  0.0342  0.0060 -0.3973
 4122SOL    HW114360   4.865   3.697   4.645  1.0901 -0.2328 -1.0572
 4122SOL    HW214361   4.966   3.808   4.627 -0.2288  1.5318  1.7543
 4123SOL     OW14362   2.365   8.435   2.737  0.2343 -0.0249  0.0785
 4123SOL    HW114363   2.289   8.396   2.693  1.5078 -1.3145 -1.0731
 4123SOL    HW214364   2.361   8.528   2.714 -1.5176  0.1390  0.8604
 4124SOL     OW14365   6.066   1.316   7.110  0.4137  0.7147  0.4064
 4124SOL    HW114366   6.108   1.381   7.166  0.1372  2.9333 -1.7975
 4124SOL    HW214367   6.122   1.311   7.033 -1.6272  1.4321 -1.2306
 4125SOL     OW14368   1.792   0.004   2.529 -0.0527 -0.1126 -0.1994
 4125SOL    HW114369   1.750  -0.080   2.544 -1.8627  0.7450 -0.1996
 4125SOL    HW214370   1.853   0.014   2.602 -1.0244 -0.7141  0.7227
 4126SOL     OW14371   3.419   6.360   8.186  0.2168 -0.2926 -0.9762
 4126SOL    HW114372   3.364   6.435   8.207 -1.7060 -1.4751 -1.5948
 4126SOL    HW214373   3.503   6.380   8.227 -1.3006  0.5537  1.9696
 4127SOL     OW14374   3.451   6.173   5.524 -0.7511  0.1182 -0.4842
 4127SOL    HW114375   3.538   6.213   5.515 -0.4777 -0.5991 -1.1425
 4127SOL    HW214376   3.434   6.174   5.618  0.3768 -0.5761 -0.2500
 4128SOL     OW14377   4.617   5.842   7.740 -0.4586 -0.3929  0.4094
 4128SOL    HW114378   4.614   5.751   7.709  2.7587  0.0149 -1.5384
 4128SOL    HW214379   4.536   5.881   7.707 -1.4291 -2.2748  0.4340
 4129SOL     OW14380   1.330   4.686   1.061  0.0747 -0.3839 -0.0219
 4129SOL    HW114381   1.412   4.662   1.103  0.7774  1.0281 -0.5381
 4129SOL    HW214382   1.294   4.755   1.117  0.6250  0.9459 -1.2314
 4130SOL     OW14383   6.302   2.271   7.864 -0.6593  0.1917  0.4385
 4130SOL    HW114384   6.278   2.253   7.773 -0.6903  0.9194  0.3002
 4130SOL    HW214385   6.391   2.235   7.872  0.4159  2.4131 -0.6454
 4131SOL     OW14386   0.552   7.318   1.314  0.1289  0.1764 -1.0184
 4131SOL    HW114387   0.591   7.400   1.345 -0.7179  0.6556 -1.1971
 4131SOL    HW214388   0.458   7.334   1.315  0.0013 -0.3814 -2.2031
 4132SOL     OW14389   5.434   5.319   6.521 -0.0045  0.4589 -0.5969
 4132SOL    HW114390   5.372   5.381   6.560  0.4937 -0.4258  1.7312
 4132SOL    HW214391   5.506   5.374   6.490 -1.7708  1.4964 -3.2248
 4133SOL     OW14392   8.733   8.731   7.003 -0.2413 -0.1406  0.0631
 4133SOL    HW114393   8.795   8.804   7.000  0.3736 -0.6755 -0.3258
 4133SOL    HW214394   8.760   8.681   7.080 -1.1894  0.4913  0.8327
 4134SOL     OW14395   6.667   1.065   6.849  0.3732  0.1900  0.3473
 4134SOL    HW114396   6.626   1.150   6.830  0.5317  0.3733  0.8182
 4134SOL    HW214397   6.754   1.087   6.880  0.7245 -0.1889 -0.3475
 4135SOL     OW14398   8.357   3.786   8.331  0.2550 -0.1918  0.4028
 4135SOL    HW114399   8.296   3.850   8.294  2.2677  0.1620 -2.7207
 4135SOL    HW214400   8.318   3.701   8.312 -0.1091  0.0468  0.0619
 4136SOL     OW14401   6.023   8.852   8.890 -0.9295  0.0550  0.3628
 4136SOL    HW114402   6.101   8.814   8.848 -0.3839  0.4026  1.0349
 4136SOL    HW214403   5.963   8.870   8.817 -0.5878 -0.6695 -0.1180
 4137SOL     OW14404   3.825   0.844   4.752 -0.0605 -0.3821 -0.5031
 4137SOL    HW114405   3.908   0.800   4.766 -0.1946 -0.4551  0.1013
 4137SOL    HW214406   3.761   0.773   4.741 -0.3759 -0.3933  1.0415
 4138SOL     OW14407   8.197   3.333   0.138 -0.2797 -0.3105 -0.2811
 4138SOL    HW114408   8.275   3.307   0.187  0.4847  1.8859 -0.2023
 4138SOL    HW214409   8.128   3.338   0.203 -0.1199 -0.7925 -0.0704
 4139SOL     OW14410   3.902   3.879   7.516 -0.2372 -0.4918  0.0209
 4139SOL    HW114411   3.861   3.899   7.600  1.7887  2.2645  0.5065
 4139SOL    HW214412   3.958   3.804   7.534  0.5671  0.3779  1.3216
 4140SOL     OW14413   8.521   8.593   4.489 -0.2341 -0.3719 -0.4439
 4140SOL    HW114414   8.462   8.668   4.498 -1.0511 -0.8722 -1.4613
 4140SOL    HW214415   8.572   8.593   4.570 -1.8267 -0.0816  0.6035
 4141SOL     OW14416   2.543   7.746   2.394 -0.1978 -0.3266  0.5086
 4141SOL    HW114417   2.559   7.826   2.344 -0.4252 -0.6380 -0.0648
 4141SOL    HW214418   2.561   7.675   2.333  0.1322 -0.7225  1.0544
 4142SOL     OW14419   6.373   3.694   3.289  0.8487 -0.2827 -0.1341
 4142SOL    HW114420   6.306   3.657   3.232 -0.3175 -0.8330  1.5106
 4142SOL    HW214421   6.454   3.691   3.238 -0.5134  1.3733 -2.6019
 4143SOL     OW14422   7.945   4.720   0.312 -0.4913  0.1309 -0.6456
 4143SOL    HW114423   7.917   4.652   0.251  1.3952 -0.9795 -0.3444
 4143SOL    HW214424   8.012   4.768   0.264 -0.9500  1.0262 -0.4090
 4144SOL     OW14425   2.047   6.775   8.544 -0.3560  0.1178 -0.4856
 4144SOL    HW114426   1.987   6.746   8.475  0.1201 -0.7028 -0.5791
 4144SOL    HW214427   1.990   6.802   8.616 -0.8490  0.3244 -0.9491
 4145SOL     OW14428   6.942   7.389   3.492  0.1123 -0.3132  0.4167
 4145SOL    HW114429   6.934   7.294   3.489 -0.5020 -0.3070  1.3525
 4145SOL    HW214430   6.853   7.421   3.473 -0.2295  0.0010  2.3562
 4146SOL     OW14431   1.014   5.398   4.892  0.3953 -0.3351  0.3343
 4146SOL    HW114432   1.028   5.354   4.808 -0.3422 -2.2697  1.1625
 4146SOL    HW214433   1.008   5.491   4.870 -0.3501 -0.8410 -1.8161
 4147SOL     OW14434   3.877   1.411   4.398  0.3922  0.0758 -0.6934
 4147SOL    HW114435   3.950   1.418   4.459  0.7230  0.6345 -1.1533
 4147SOL    HW214436   3.915   1.374   4.318 -0.2954 -1.9767 -0.1344
 4148SOL     OW14437   6.619   7.646   1.948  0.1540 -0.4893  0.1401
 4148SOL    HW114438   6.665   7.637   1.865 -0.2641  1.4679 -0.3586
 4148SOL    HW214439   6.665   7.718   1.993 -1.2166  0.2479  0.4258
 4149SOL     OW14440   6.280   5.668   8.653 -0.4182  0.6600  0.3267
 4149SOL    HW114441   6.286   5.724   8.575 -0.0828  0.2608  0.0588
 4149SOL    HW214442   6.274   5.579   8.617 -0.7206  0.5068  0.7526
 4150SOL     OW14443   6.348   5.229   1.968  0.0414  0.6563  0.0192
 4150SOL    HW114444   6.403   5.186   2.034  0.5947 -0.1348 -0.9321
 4150SOL    HW214445   6.352   5.171   1.892  0.6059  2.2673 -1.2438
 4151SOL     OW14446   7.002   6.375   3.080  0.4107  0.1630  0.0566
 4151SOL    HW114447   7.064   6.328   3.135  0.3898  0.1146  0.0392
 4151SOL    HW214448   7.006   6.330   2.995  1.0036  0.7154 -0.2139
 4152SOL     OW14449   7.612   5.825   2.834  0.2785 -0.0933 -0.2414
 4152SOL    HW114450   7.676   5.759   2.859  0.8492  0.6169  0.2238
 4152SOL    HW214451   7.662   5.906   2.826 -0.6017  0.5533  0.4855
 4153SOL     OW14452   8.444   8.151   8.569 -0.1492 -0.2400 -0.1575
 4153SOL    HW114453   8.496   8.105   8.635  0.3430 -0.1773 -0.4952
 4153SOL    HW214454   8.370   8.187   8.617 -0.3543 -1.0893  0.1709
 4154SOL     OW14455   7.079   8.651   0.917 -0.5901  0.0211 -0.3098
 4154SOL    HW114456   7.115   8.574   0.873 -1.1080 -0.2582 -0.2528
 4154SOL    HW214457   7.152   8.713   0.920  0.3042 -1.0286  0.9837
 4155SOL     OW14458   7.295   4.744   0.504 -0.7028 -0.3293 -0.8469
 4155SOL    HW114459   7.313   4.783   0.418 -3.0009 -0.7652 -1.5837
 4155SOL    HW214460   7.331   4.656   0.498  0.1222  0.0044 -0.9469
 4156SOL     OW14461   8.313   8.409   2.873 -1.1339 -0.2536  0.4760
 4156SOL    HW114462   8.293   8.368   2.958 -0.6496 -2.8000 -0.5400
 4156SOL    HW214463   8.277   8.348   2.808  0.6449  0.3812 -1.1859
 4157SOL     OW14464   7.947   8.269   4.888 -0.0987  0.0547 -0.0992
 4157SOL    HW114465   7.934   8.177   4.913  1.0533 -0.3162 -0.7656
 4157SOL    HW214466   8.026   8.295   4.935  0.1880  0.3704 -0.7499
 4158SOL     OW14467   5.625   0.022   6.280  0.2949 -0.2223  0.2906
 4158SOL    HW114468   5.545  -0.031   6.282  0.7474 -0.9382  2.3876
 4158SOL    HW214469   5.696  -0.042   6.293  1.2632  0.3707 -1.7348
 4159SOL     OW14470   3.500   4.256   5.357  0.2515 -0.1664 -0.1510
 4159SOL    HW114471   3.539   4.189   5.300  0.4866 -0.0489 -0.1293
 4159SOL    HW214472   3.406   4.248   5.341 -0.0070 -2.4333  1.9565
 4160SOL     OW14473   3.819   7.637   4.490  1.1629  0.3646 -0.0700
 4160SOL    HW114474   3.866   7.605   4.413 -1.4413  2.1626 -2.6301
 4160SOL    HW214475   3.809   7.731   4.475 -2.0508  0.3143  0.8667
 4161SOL     OW14476   3.807   1.342   3.593 -0.4136 -0.7579  0.0289
 4161SOL    HW114477   3.844   1.413   3.645 -0.3271  0.5111 -1.6707
 4161SOL    HW214478   3.717   1.334   3.624 -0.9315  1.2275 -0.7907
 4162SOL     OW14479   2.543   2.015   2.331 -0.2126 -0.5169  0.1443
 4162SOL    HW114480   2.611   2.010   2.398 -0.7171 -0.4933  0.6697
 4162SOL    HW214481   2.528   1.924   2.305 -0.2211 -0.5528  0.2747
 4163SOL     OW14482   6.346   7.434   0.432 -0.3659  0.2660 -0.0433
 4163SOL    HW114483   6.254   7.458   0.442 -0.5421 -0.2905 -0.2810
 4163SOL    HW214484   6.344   7.356   0.377  0.1909 -0.3226  0.7557
 4164SOL     OW14485   0.287   2.034   0.075  0.1340  0.3691  0.5526
 4164SOL    HW114486   0.327   1.949   0.091 -1.4390 -0.2978  1.1776
 4164SOL    HW214487   0.227   2.019   0.001 -1.1301  0.5548  1.4932
 4165SOL     OW14488   3.596   5.951   0.365  0.2165 -0.0024 -0.6614
 4165SOL    HW114489   3.512   5.936   0.408 -0.2546  0.3639 -1.4481
 4165SOL    HW214490   3.660   5.916   0.427 -0.5942 -1.7934 -0.7828
 4166SOL     OW14491   7.303   0.868   1.311 -0.1017 -0.6820  0.3960
 4166SOL    HW114492   7.324   0.813   1.236 -0.9749 -2.0843  1.1350
 4166SOL    HW214493   7.210   0.855   1.326 -0.1799  0.4530  1.0487
 4167SOL     OW14494   3.238   5.881   8.841  0.3700 -0.2997  0.5877
 4167SOL    HW114495   3.313   5.867   8.899 -1.8096 -1.3909  3.3713
 4167SOL    HW214496   3.261   5.834   8.760  2.5558 -0.7778  1.4151
 4168SOL     OW14497   7.003   8.719   3.844 -0.0095 -0.0392  0.3615
 4168SOL    HW114498   6.979   8.720   3.936  2.7905  0.8014  1.1734
 4168SOL    HW214499   7.052   8.800   3.830 -1.0655  0.2806 -2.1073
 4169SOL     OW14500   1.501   7.003   0.893  0.1325  0.1558  0.0791
 4169SOL    HW114501   1.593   6.993   0.916 -0.2101 -0.4516  1.2930
 4169SOL    HW214502   1.454   6.995   0.977 -1.0820 -0.4782 -0.6271
 4170SOL     OW14503   3.043   1.983   8.242 -0.2650 -0.7019 -0.0784
 4170SOL    HW114504   3.035   2.053   8.176 -0.7805 -0.0349  0.6689
 4170SOL    HW214505   3.074   2.028   8.321  0.6590 -1.5479  0.0535
 4171SOL     OW14506   8.470   7.477   3.889  0.3177  0.1318  0.4077
 4171SOL    HW114507   8.496   7.563   3.923 -0.0598  0.5119 -0.2523
 4171SOL    HW214508   8.376   7.484   3.874  0.7394  0.6749 -2.5825
 4172SOL     OW14509   5.201   5.575   3.162 -0.3994  0.0608  0.1111
 4172SOL    HW114510   5.131   5.627   3.202 -1.6577 -1.3385 -0.1843
 4172SOL    HW214511   5.282   5.608   3.203 -1.3026  1.0951  1.1379
 4173SOL     OW14512   2.267   6.810   6.942 -0.2083 -0.1010 -0.0668
 4173SOL    HW114513   2.215   6.890   6.937  0.2600  0.1222 -2.7765
 4173SOL    HW214514   2.358   6.840   6.946 -0.0574 -0.4550 -0.6174
 4174SOL     OW14515   3.291   8.604   2.021 -0.0934  0.0503  0.4168
 4174SOL    HW114516   3.249   8.686   2.049  2.3064  2.4288 -2.2653
 4174SOL    HW214517   3.338   8.574   2.099 -0.7030  1.4532  1.3782
 4175SOL     OW14518   4.530   5.360   5.960 -0.7833 -0.4270  0.0849
 4175SOL    HW114519   4.503   5.315   5.881 -0.2448 -0.8304  0.1270
 4175SOL    HW214520   4.460   5.423   5.977 -1.1694 -0.7229 -0.3957
 4176SOL     OW14521   2.429   5.031   4.941 -0.6487 -0.4263 -0.2955
 4176SOL    HW114522   2.335   5.050   4.947 -0.4637  0.1837  1.1740
 4176SOL    HW214523   2.439   4.949   4.991 -0.5372 -1.0593 -1.3339
 4177SOL     OW14524   5.556   0.013   0.563  0.2278  0.0663 -0.3998
 4177SOL    HW114525   5.595   0.097   0.538 -1.0002  1.2676  1.4957
 4177SOL    HW214526   5.592  -0.049   0.500  0.6741  2.1017 -2.2660
 4178SOL     OW14527   7.533   2.294   7.350  0.6114  0.3309  0.1309
 4178SOL    HW114528   7.611   2.310   7.403  0.8269 -0.3111  0.0161
 4178SOL    HW214529   7.554   2.215   7.300  0.3052  0.7583 -0.7063
 4179SOL     OW14530   4.229   3.560   4.541 -0.0223 -0.1142 -0.4455
 4179SOL    HW114531   4.319   3.527   4.542 -0.6757 -2.2034  1.8703
 4179SOL    HW214532   4.181   3.495   4.489 -0.3424  0.6493 -1.1324
 4180SOL     OW14533   0.294   6.675   3.330  0.4537  0.4008 -0.1512
 4180SOL    HW114534   0.230   6.645   3.266  0.0211  1.6065 -0.3094
 4180SOL    HW214535   0.243   6.726   3.393  1.1738  0.9359  0.0140
 4181SOL     OW14536   7.888   8.823   3.408 -0.1870 -0.2801  0.0390
 4181SOL    HW114537   7.852   8.898   3.360  0.6948  0.7480  0.9167
 4181SOL    HW214538   7.983   8.833   3.400 -0.0605 -1.4797 -0.0770
 4182SOL     OW14539   5.814   5.041   7.467 -0.4981  0.0088  0.5744
 4182SOL    HW114540   5.802   4.951   7.438 -1.4904  0.6465 -1.1163
 4182SOL    HW214541   5.849   5.033   7.556  1.1196 -2.0169 -0.1823
 4183SOL     OW14542   1.199   3.945   6.158  0.2540 -0.0277  0.7727
 4183SOL    HW114543   1.267   3.951   6.091 -0.7119 -2.8212 -0.6423
 4183SOL    HW214544   1.235   3.884   6.222 -0.2692 -0.2393  0.8664
 4184SOL     OW14545   0.210   0.858   2.558  0.5120  0.2663  0.1411
 4184SOL    HW114546   0.299   0.823   2.552 -0.2751 -1.9073  0.3846
 4184SOL    HW214547   0.183   0.868   2.466 -0.0126 -2.0222 -0.0328
 4185SOL     OW14548   3.159   6.964   0.841  0.7335  0.6663 -0.0117
 4185SOL    HW114549   3.146   7.059   0.831 -0.1813  0.6031  0.4687
 4185SOL    HW214550   3.132   6.928   0.757  0.5735  0.7882 -0.0136
 4186SOL     OW14551   8.327   3.352   3.592 -0.2810 -0.1773 -0.3002
 4186SOL    HW114552   8.251   3.305   3.625 -0.7272  0.0487 -0.9862
 4186SOL    HW214553   8.360   3.400   3.668  0.2821 -1.6970  0.4508
 4187SOL     OW14554   6.481   5.601   7.432 -0.8058  0.3663  0.2366
 4187SOL    HW114555   6.560   5.608   7.378 -0.9306 -2.1250 -0.3986
 4187SOL    HW214556   6.465   5.507   7.438 -3.5899  0.7901  0.5633
 4188SOL     OW14557   1.604   4.097   3.822 -0.5308  0.0130  0.0420
 4188SOL    HW114558   1.514   4.128   3.835  0.4135  2.2711  1.9821
 4188SOL    HW214559   1.638   4.086   3.911  1.6423  0.9556 -0.6150
 4189SOL     OW14560   3.640   5.179   6.555 -0.1439  0.0853 -0.6180
 4189SOL    HW114561   3.584   5.253   6.534  0.3074  1.5972  2.8540
 4189SOL    HW214562   3.729   5.212   6.544  0.0680  0.3755  1.6516
 4190SOL     OW14563   5.685   4.105   2.597  0.5413 -0.3953  0.5167
 4190SOL    HW114564   5.775   4.083   2.573  0.1997  0.1973 -1.5090
 4190SOL    HW214565   5.657   4.167   2.530 -1.1784 -0.0444  1.4917
 4191SOL     OW14566   7.284   4.766   2.209 -0.0472 -0.3121  0.2306
 4191SOL    HW114567   7.226   4.728   2.143  0.5479 -1.3547  0.2755
 4191SOL    HW214568   7.240   4.846   2.237 -1.0072 -0.6048 -0.3866
 4192SOL     OW14569   7.483   7.552   2.076  0.0415 -0.0023 -0.3007
 4192SOL    HW114570   7.541   7.487   2.115 -1.9988 -1.7756 -0.0099
 4192SOL    HW214571   7.506   7.552   1.983  0.8066 -0.3460 -0.1191
 4193SOL     OW14572   6.490   1.333   6.433  0.2342 -0.3218 -0.0980
 4193SOL    HW114573   6.458   1.370   6.515  2.1053  1.0095  0.1034
 4193SOL    HW214574   6.432   1.369   6.366  0.0031  0.3349  0.4391
 4194SOL     OW14575   2.904   1.537   1.004 -0.5013 -0.3906  0.1681
 4194SOL    HW114576   2.830   1.545   0.945 -0.7492 -2.7396  0.0523
 4194SOL    HW214577   2.971   1.492   0.952  1.4756  2.5710 -0.0660
 4195SOL     OW14578   7.956   5.743   4.115 -0.1683  0.6176  0.4368
 4195SOL    HW114579   7.938   5.692   4.035  1.2463  2.9024 -1.4875
 4195SOL    HW214580   7.981   5.678   4.180  1.7438 -1.1764 -1.9132
 4196SOL     OW14581   7.068   2.064   2.069  0.0752 -0.4829 -0.3150
 4196SOL    HW114582   7.029   2.000   2.129  0.0243 -0.2241 -0.0703
 4196SOL    HW214583   7.100   2.011   1.995 -2.1276 -0.5591 -1.2757
 4197SOL     OW14584   6.648   1.910   2.900 -0.1680  0.0646  0.3036
 4197SOL    HW114585   6.691   1.917   2.985  0.1347  0.6349  0.1042
 4197SOL    HW214586   6.718   1.920   2.836 -0.3329 -0.7674 -0.0228
 4198SOL     OW14587   7.962   3.760   1.922 -0.1375 -0.3537  0.5575
 4198SOL    HW114588   7.956   3.847   1.962 -0.2890  0.5620 -1.3284
 4198SOL    HW214589   8.055   3.748   1.904 -0.0288 -0.9049  1.4719
 4199SOL     OW14590   1.015   0.436   4.498 -1.0473 -0.3074 -0.1571
 4199SOL    HW114591   0.955   0.378   4.452 -0.4884 -0.9227 -0.1305
 4199SOL    HW214592   1.075   0.467   4.431 -0.5301 -0.8191  0.0633
 4200SOL     OW14593   4.492   0.907   6.798 -0.0451  0.0241  0.0138
 4200SOL    HW114594   4.448   0.851   6.862  0.8799  1.0135  1.5838
 4200SOL    HW214595   4.421   0.940   6.744 -1.0260  0.0612  1.2665
 4201SOL     OW14596   8.624   3.185   5.720 -0.0712 -0.7961 -0.0785
 4201SOL    HW114597   8.647   3.098   5.753 -0.0596 -0.7069  0.1510
 4201SOL    HW214598   8.708   3.230   5.710  0.0987 -1.4378 -2.0100
 4202SOL     OW14599   1.848   7.793   1.060  0.1390  0.3779 -0.0021
 4202SOL    HW114600   1.787   7.726   1.089  0.7958 -0.6260 -0.8839
 4202SOL    HW214601   1.795   7.852   1.005  0.3594 -1.8650 -2.8693
 4203SOL     OW14602   3.799   4.924   5.806 -0.5290  0.0640  0.1684
 4203SOL    HW114603   3.811   4.856   5.872 -1.4077  0.7751  1.0957
 4203SOL    HW214604   3.723   4.894   5.755  0.2874 -0.5953 -0.6827
 4204SOL     OW14605   1.765   0.127   2.301 -0.7110  0.1754 -0.2512
 4204SOL    HW114606   1.773   0.089   2.388 -0.8611 -0.5140 -0.5355
 4204SOL    HW214607   1.810   0.067   2.243 -2.2382 -0.3908 -0.9192
 4205SOL     OW14608   3.758   8.821   0.233  0.5431 -1.1778  0.0793
 4205SOL    HW114609   3.730   8.867   0.313 -0.9424 -2.2151  0.1915
 4205SOL    HW214610   3.833   8.769   0.262  0.4087 -1.0720  0.6449
 4206SOL     OW14611   3.330   1.814   5.406  0.0073  1.0897 -0.3463
 4206SOL    HW114612   3.323   1.845   5.496  0.7251 -1.2583  0.5833
 4206SOL    HW214613   3.421   1.832   5.381  0.5990 -0.6634  0.4061
 4207SOL     OW14614   4.265   1.047   6.645 -0.0643  0.1858 -0.6106
 4207SOL    HW114615   4.175   1.054   6.616 -0.2898  0.7004  0.1665
 4207SOL    HW214616   4.265   1.086   6.733  0.4264 -1.9644  0.4078
 4208SOL     OW14617   1.942   4.472   1.749  0.2928  0.3617 -0.4297
 4208SOL    HW114618   1.958   4.457   1.656  0.5989 -1.6465 -0.1075
 4208SOL    HW214619   1.972   4.392   1.791  1.1354  1.6454  1.5315
 4209SOL     OW14620   4.851   1.515   2.577  0.7631  0.6131  0.4371
 4209SOL    HW114621   4.812   1.598   2.605  0.0752  0.4688 -0.0588
 4209SOL    HW214622   4.922   1.499   2.640  0.7194  1.4274  0.7089
 4210SOL     OW14623   5.144   7.955   7.958  0.0415  0.0644  0.0541
 4210SOL    HW114624   5.153   7.896   7.884  1.1976 -0.9124  0.9341
 4210SOL    HW214625   5.054   7.942   7.988  0.0565 -0.7265 -0.2146
 4211SOL     OW14626   4.043   3.426   6.161  0.0200  0.1099 -0.2035
 4211SOL    HW114627   4.079   3.514   6.172  0.4491 -0.0761 -0.0940
 4211SOL    HW214628   4.095   3.389   6.089 -0.0713 -0.0959 -0.1624
 4212SOL     OW14629   5.698   1.918   4.302 -0.3866 -0.1225  0.3288
 4212SOL    HW114630   5.682   1.996   4.355 -2.5667 -0.8760  0.9088
 4212SOL    HW214631   5.761   1.867   4.353 -1.6632 -0.3582  1.7625
 4213SOL     OW14632   6.389   6.658   5.026  0.3366 -0.2590  0.3532
 4213SOL    HW114633   6.418   6.747   5.003 -0.9648  0.1499  0.2050
 4213SOL    HW214634   6.325   6.672   5.096 -0.0731 -1.0636  0.1458
 4214SOL     OW14635   3.710   6.558   1.074 -0.3932  0.0945  0.0170
 4214SOL    HW114636   3.628   6.607   1.087  0.2492  1.3315 -0.4491
 4214SOL    HW214637   3.776   6.626   1.058  0.5990 -0.9211 -0.2902
 4215SOL     OW14638   3.785   3.553   5.833  0.0869 -0.1504  0.3162
 4215SOL    HW114639   3.832   3.490   5.779  0.7015  0.7452 -0.2221
 4215SOL    HW214640   3.828   3.637   5.816  0.2018  0.1930  2.0812
 4216SOL     OW14641   7.041   1.856   4.619 -0.8894 -0.2254  0.4371
 4216SOL    HW114642   6.960   1.806   4.612 -0.0629 -1.4793 -0.8589
 4216SOL    HW214643   7.015   1.947   4.609 -2.1184 -0.6226 -0.0885
 4217SOL     OW14644   2.005   4.745   7.717 -0.1423  0.7049  0.5236
 4217SOL    HW114645   2.006   4.780   7.628  0.3947  1.0899  0.6758
 4217SOL    HW214646   1.913   4.749   7.743 -0.4510 -0.2576 -0.3314
 4218SOL     OW14647   0.338   2.233   3.817  0.1783  0.5121 -0.2463
 4218SOL    HW114648   0.355   2.139   3.813 -1.2669  0.2910 -1.9858
 4218SOL    HW214649   0.393   2.263   3.890  2.9585 -1.1561 -1.4853
 4219SOL     OW14650   7.843   2.336   0.213  0.0317 -0.2895  0.2333
 4219SOL    HW114651   7.853   2.431   0.212 -1.9388 -0.0290 -0.9693
 4219SOL    HW214652   7.888   2.307   0.293  0.2736  1.6870  0.8496
 4220SOL     OW14653   7.766   8.345   0.106 -0.2057 -0.2224  0.1324
 4220SOL    HW114654   7.823   8.356   0.029 -0.7045 -0.6674 -0.3084
 4220SOL    HW214655   7.753   8.251   0.113 -0.7394 -0.1372  0.3302
 4221SOL     OW14656   7.221   1.527   5.376 -0.1545  0.2793 -0.3886
 4221SOL    HW114657   7.272   1.447   5.391 -0.0827  0.6256  1.3865
 4221SOL    HW214658   7.159   1.530   5.449  0.1741  2.0908 -0.1371
 4222SOL     OW14659   5.049   5.095   2.059  0.1102 -0.1132  0.7926
 4222SOL    HW114660   5.122   5.044   2.024 -0.1814  0.5037 -0.8074
 4222SOL    HW214661   4.974   5.071   2.004 -0.1796  1.5182  0.4020
 4223SOL     OW14662   7.889   7.141   2.819  0.2368  0.3519 -0.1184
 4223SOL    HW114663   7.838   7.157   2.898  1.1563  2.4126  0.1096
 4223SOL    HW214664   7.841   7.185   2.749 -1.1896 -2.4145 -1.0323
 4224SOL     OW14665   7.994   3.892   0.605  1.0240  0.2901  0.1647
 4224SOL    HW114666   8.058   3.838   0.651  1.6324  0.0489 -0.9187
 4224SOL    HW214667   8.017   3.982   0.630 -0.2847  0.0773  2.3406
 4225SOL     OW14668   8.302   1.144   7.028 -0.7356 -0.6250 -0.1011
 4225SOL    HW114669   8.251   1.143   6.947 -1.5882 -1.3925  0.4259
 4225SOL    HW214670   8.350   1.227   7.025  0.7698 -1.4724 -2.2968
 4226SOL     OW14671   2.973   3.824   5.776  0.4689  0.1067  0.7624
 4226SOL    HW114672   2.932   3.810   5.691  1.9844  2.0842 -0.3670
 4226SOL    HW214673   3.026   3.746   5.791 -0.7593 -0.8106  0.5219
 4227SOL     OW14674   0.087   4.085   1.161  0.2562 -0.1532  0.6756
 4227SOL    HW114675   0.079   4.093   1.066 -0.1592 -2.0575  0.5158
 4227SOL    HW214676   0.019   4.143   1.196 -0.0180  0.0538 -0.1889
 4228SOL     OW14677   2.562   4.394   0.909 -0.5330  0.2667  0.2057
 4228SOL    HW114678   2.599   4.445   0.981  2.6613 -1.3329 -0.1079
 4228SOL    HW214679   2.609   4.425   0.831 -0.9065 -0.8583 -0.4908
 4229SOL     OW14680   7.398   4.368   4.865  0.4387  0.0028  0.0629
 4229SOL    HW114681   7.373   4.280   4.837 -0.4908  0.2043  0.2410
 4229SOL    HW214682   7.364   4.426   4.796  0.7819  0.2574  0.0994
 4230SOL     OW14683   2.011   1.881   4.291 -0.1977 -0.1285 -0.1830
 4230SOL    HW114684   2.047   1.807   4.242 -2.2371 -1.0781 -0.3301
 4230SOL    HW214685   1.916   1.875   4.278 -0.7735  0.2121  2.9794
 4231SOL     OW14686   0.673   4.042   0.659 -0.6127 -0.2349 -0.3112
 4231SOL    HW114687   0.648   3.980   0.727  0.2008  1.2225  1.3932
 4231SOL    HW214688   0.593   4.053   0.606 -1.9264  0.0887  1.6133
 4232SOL     OW14689   7.793   4.847   3.239  0.0552  0.6328  0.0893
 4232SOL    HW114690   7.775   4.761   3.202 -1.4703  0.9992 -0.1151
 4232SOL    HW214691   7.724   4.903   3.204  0.2801  1.6551  1.1985
 4233SOL     OW14692   3.552   5.920   7.846  0.4146 -0.3417  0.1014
 4233SOL    HW114693   3.476   5.969   7.815  0.1719 -0.4913  0.4567
 4233SOL    HW214694   3.528   5.892   7.935  1.3322  0.5895  0.6656
 4234SOL     OW14695   0.486   2.191   8.632 -0.0832  0.2395 -0.5910
 4234SOL    HW114696   0.456   2.226   8.548 -1.0735  0.9964  0.0505
 4234SOL    HW214697   0.417   2.215   8.694  1.0395  0.4637  0.6115
 4235SOL     OW14698   3.562   8.481   1.934  0.0953 -0.1012 -0.5746
 4235SOL    HW114699   3.568   8.397   1.889 -0.5113 -0.1586 -0.5583
 4235SOL    HW214700   3.474   8.513   1.913 -0.4708 -0.4573  1.1473
 4236SOL     OW14701   4.700   8.876   5.268  0.4482 -0.1378  0.1982
 4236SOL    HW114702   4.605   8.877   5.261  0.2844 -3.4822  0.0658
 4236SOL    HW214703   4.731   8.890   5.178  0.1869  1.7292  0.3547
 4237SOL     OW14704   8.095   7.671   8.413  0.3375 -0.1118  0.1681
 4237SOL    HW114705   8.156   7.597   8.417  0.5672  0.1169  1.1167
 4237SOL    HW214706   8.010   7.631   8.394  0.7412 -0.4436 -1.0954
 4238SOL     OW14707   7.978   0.213   1.166  0.8026 -0.7677 -0.2937
 4238SOL    HW114708   8.049   0.202   1.229  0.9551  1.2635 -0.0640
 4238SOL    HW214709   8.020   0.207   1.081  1.2669  0.3665 -0.1599
 4239SOL     OW14710   0.873   3.451   6.392 -0.6705  0.1193 -0.2255
 4239SOL    HW114711   0.907   3.535   6.361 -1.1328  0.2703 -0.3261
 4239SOL    HW214712   0.933   3.386   6.355  1.7354  0.5441  2.5272
 4240SOL     OW14713   8.045   1.452   6.061 -0.4872 -0.2468  0.3542
 4240SOL    HW114714   8.137   1.429   6.069 -0.6951 -1.0871  0.4364
 4240SOL    HW214715   8.040   1.507   5.983 -0.0088 -0.7224 -0.0161
 4241SOL     OW14716   3.881   5.907   5.244  0.5144  0.2704 -0.1623
 4241SOL    HW114717   3.799   5.956   5.240 -0.3890 -1.2212 -0.9842
 4241SOL    HW214718   3.942   5.966   5.289 -1.1413  1.2066  0.9868
 4242SOL     OW14719   4.327   8.795   0.880 -0.6220  0.7532  0.2143
 4242SOL    HW114720   4.353   8.837   0.798 -0.5371  0.3695  0.0422
 4242SOL    HW214721   4.309   8.704   0.856  2.2914 -0.1770  1.1018
 4243SOL     OW14722   2.579   4.934   1.955 -0.2100  0.3537  0.2266
 4243SOL    HW114723   2.632   4.858   1.929 -0.4233 -0.0363  0.8957
 4243SOL    HW214724   2.593   4.941   2.049 -2.2343 -0.4624  0.6417
 4244SOL     OW14725   5.157   1.914   1.779  0.0916 -0.1326  0.1521
 4244SOL    HW114726   5.176   1.860   1.703  0.7465 -1.0063  0.9110
 4244SOL    HW214727   5.113   1.991   1.744 -0.8053 -1.1203 -0.9679
 4245SOL     OW14728   6.758   6.388   2.086 -0.2961  0.5340  0.5687
 4245SOL    HW114729   6.833   6.384   2.027 -0.6135  1.1950  0.1022
 4245SOL    HW214730   6.785   6.339   2.163 -0.0988 -0.8670 -0.3613
 4246SOL     OW14731   5.010   4.805   8.209  1.3649  0.0177  0.1742
 4246SOL    HW114732   4.959   4.871   8.161  0.9069 -0.3211  0.1941
 4246SOL    HW214733   5.079   4.780   8.148  2.7988  1.9954  0.8931
 4247SOL     OW14734   3.005   0.121   0.326 -0.5325 -0.2782 -0.1878
 4247SOL    HW114735   3.015   0.067   0.404  0.6775 -0.6148 -0.5539
 4247SOL    HW214736   3.083   0.176   0.323 -1.6099  1.3606  0.0358
 4248SOL     OW14737   5.296   2.441   2.771  0.4021 -1.2619  0.3504
 4248SOL    HW114738   5.378   2.416   2.813  0.3974 -0.8138  0.6379
 4248SOL    HW214739   5.256   2.503   2.833 -0.7286 -2.3914  0.8049
 4249SOL     OW14740   7.034   6.657   7.928 -0.0029 -0.0310  0.1755
 4249SOL    HW114741   6.945   6.690   7.912 -0.1733 -0.4265  0.2749
 4249SOL    HW214742   7.079   6.730   7.970  0.7195  1.3481 -2.7704
 4250SOL     OW14743   5.087   2.625   5.211  0.2876 -0.4053 -0.0210
 4250SOL    HW114744   5.043   2.541   5.199  0.1883 -0.3803  0.1757
 4250SOL    HW214745   5.019   2.690   5.194  0.4872 -0.3588 -0.6739
 4251SOL     OW14746   8.497   7.851   8.791 -0.1775 -0.7523 -0.3388
 4251SOL    HW114747   8.511   7.756   8.787  0.1497 -0.6811 -1.1576
 4251SOL    HW214748   8.429   7.868   8.726  1.8535 -0.0948 -2.4399
 4252SOL     OW14749   8.129   2.948   2.242  0.3899  0.5946 -0.2385
 4252SOL    HW114750   8.197   2.885   2.266  0.4304  0.6133 -0.3053
 4252SOL    HW214751   8.062   2.937   2.309  0.3085  0.3410 -0.3610
 4253SOL     OW14752   7.240   6.206   1.839 -0.4522 -0.1006  0.1568
 4253SOL    HW114753   7.166   6.267   1.833 -1.1804 -0.9275  0.4452
 4253SOL    HW214754   7.249   6.189   1.933  1.1615  1.2243  0.2786
 4254SOL     OW14755   4.833   6.217   6.127  0.2170 -0.3141 -0.2440
 4254SOL    HW114756   4.832   6.287   6.193 -2.2621 -0.1974 -0.2804
 4254SOL    HW214757   4.925   6.197   6.114  0.9289  1.8822  0.9016
 4255SOL     OW14758   5.304   1.760   1.547 -0.3646  0.1124 -0.3556
 4255SOL    HW114759   5.258   1.678   1.563 -1.4053  0.9352  1.0585
 4255SOL    HW214760   5.391   1.746   1.583 -0.7326 -0.1691  0.4387
 4256SOL     OW14761   0.719   4.830   6.662 -0.3934  0.3517  0.8798
 4256SOL    HW114762   0.704   4.776   6.585 -0.6053 -1.1243  1.9167
 4256SOL    HW214763   0.645   4.810   6.719 -0.6544  2.0124  1.1632
 4257SOL     OW14764   1.201   2.811   6.095  0.2925  0.1528  0.3593
 4257SOL    HW114765   1.196   2.800   6.000 -0.0842  3.2945 -0.0701
 4257SOL    HW214766   1.292   2.794   6.116  0.4098 -0.4518 -0.5724
 4258SOL     OW14767   7.939   3.454   0.424  0.2648 -0.6500 -0.3590
 4258SOL    HW114768   7.888   3.527   0.459 -0.1714 -0.4198 -1.4092
 4258SOL    HW214769   8.027   3.489   0.414 -0.1705  0.1060 -1.8519
 4259SOL     OW14770   2.970   5.726   3.936  0.0794 -0.1371  0.2867
 4259SOL    HW114771   3.034   5.795   3.920 -0.1354  0.7468  2.7678
 4259SOL    HW214772   2.924   5.716   3.853  0.2905  2.5322 -0.2504
 4260SOL     OW14773   8.779   7.911   2.614 -0.7135 -0.1320  0.1372
 4260SOL    HW114774   8.729   7.992   2.615  0.8919  0.9021 -0.0999
 4260SOL    HW214775   8.837   7.916   2.690  0.1538 -0.5392 -0.4690
 4261SOL     OW14776   2.655   8.887   7.371 -0.2069 -0.1210  0.1530
 4261SOL    HW114777   2.578   8.839   7.339  1.7273 -2.4382 -1.3101
 4261SOL    HW214778   2.711   8.897   7.294  2.1550 -0.8812  1.6647
 4262SOL     OW14779   2.480   7.310   2.682  0.4253 -0.4402  0.3359
 4262SOL    HW114780   2.398   7.329   2.728  0.7202 -0.8142  1.0344
 4262SOL    HW214781   2.511   7.395   2.650 -0.4428 -0.3541 -0.2946
 4263SOL     OW14782   4.473   0.694   7.742  0.3491 -0.0991  0.4236
 4263SOL    HW114783   4.546   0.673   7.683 -0.3649  0.3068 -0.6407
 4263SOL    HW214784   4.401   0.716   7.683 -0.6592 -0.5541  1.4581
 4264SOL     OW14785   7.738   4.332   7.393  0.0191 -0.0639  0.3274
 4264SOL    HW114786   7.824   4.335   7.433  0.0059 -0.4606  0.3883
 4264SOL    HW214787   7.713   4.240   7.397 -0.2016 -0.0252 -0.1224
 4265SOL     OW14788   5.432   4.744   0.458  0.0284 -0.1298 -0.0946
 4265SOL    HW114789   5.414   4.693   0.537  0.6185  2.5039  1.9050
 4265SOL    HW214790   5.527   4.745   0.451  0.2759  2.7998  1.6309
 4266SOL     OW14791   5.237   6.543   2.570 -0.0980 -0.0853 -0.9306
 4266SOL    HW114792   5.181   6.479   2.614 -0.3340  0.3203 -0.6347
 4266SOL    HW214793   5.254   6.505   2.484 -0.6063 -0.3355 -0.9224
 4267SOL     OW14794   0.028   2.433   1.196 -0.2768  0.0657 -0.4326
 4267SOL    HW114795  -0.003   2.507   1.247 -3.8992 -1.8467  0.4585
 4267SOL    HW214796   0.081   2.382   1.258 -0.4127  0.2959 -0.1228
 4268SOL     OW14797   6.533   7.711   7.127 -0.0668 -0.3107  0.5956
 4268SOL    HW114798   6.557   7.661   7.049 -0.9657  0.3187 -0.1037
 4268SOL    HW214799   6.590   7.677   7.196  0.8629 -0.7512 -0.3719
 4269SOL     OW14800   6.545   4.683   5.750 -0.3526 -0.1437  0.3201
 4269SOL    HW114801   6.546   4.638   5.665 -1.7872 -0.4914  0.4693
 4269SOL    HW214802   6.494   4.763   5.734  1.7265  1.2409  0.1925
 4270SOL     OW14803   4.626   8.873   4.574 -0.2857 -0.6138  0.2589
 4270SOL    HW114804   4.534   8.879   4.599 -0.6204  0.6045 -1.1264
 4270SOL    HW214805   4.667   8.821   4.643 -1.7860 -0.2062  1.4878
 4271SOL     OW14806   6.393   7.273   3.326 -0.4540  0.4725 -0.5364
 4271SOL    HW114807   6.403   7.330   3.402 -1.1416  1.4810 -1.1936
 4271SOL    HW214808   6.304   7.288   3.295 -1.5637 -2.7418  0.6718
 4272SOL     OW14809   8.398   5.094   1.997  0.2857  0.0497 -0.4152
 4272SOL    HW114810   8.410   4.999   1.995 -0.1366 -0.2893  3.7686
 4272SOL    HW214811   8.447   5.126   1.921  1.8616 -3.3668 -1.0315
 4273SOL     OW14812   0.656   3.361   8.815 -0.1193 -0.7819  0.5838
 4273SOL    HW114813   0.671   3.268   8.833  3.7651 -0.3034  0.5929
 4273SOL    HW214814   0.709   3.379   8.738 -0.8919  1.4225  0.5126
 4274SOL     OW14815   4.136   2.052   4.563  0.4174 -0.1366  0.2329
 4274SOL    HW114816   4.085   2.030   4.484  0.7251  0.4631 -0.1400
 4274SOL    HW214817   4.189   1.974   4.579  1.1266  0.1095 -0.7775
 4275SOL     OW14818   1.858   7.014   6.915 -0.0447  0.2948 -0.0560
 4275SOL    HW114819   1.787   7.040   6.974 -0.0235  1.6997 -0.5972
 4275SOL    HW214820   1.821   6.942   6.863 -0.8467  0.5736  0.1131
 4276SOL     OW14821   0.758   1.057   5.743  0.3063  0.1764  0.2728
 4276SOL    HW114822   0.677   1.084   5.700  0.4115 -0.9160 -0.6530
 4276SOL    HW214823   0.826   1.110   5.702  0.1487  0.6738  0.6386
 4277SOL     OW14824   2.451   7.709   0.920  0.7639 -0.5120  0.0316
 4277SOL    HW114825   2.437   7.759   1.000 -0.6962  1.0024 -1.1008
 4277SOL    HW214826   2.374   7.653   0.913  0.6014 -0.2220 -0.5893
 4278SOL     OW14827   2.971   3.534   7.238  0.1030 -0.2979 -0.5924
 4278SOL    HW114828   3.014   3.611   7.202  1.1406 -0.7535 -0.3724
 4278SOL    HW214829   2.980   3.467   7.170 -2.9081  0.3900 -1.8079
 4279SOL     OW14830   3.139   3.995   0.787 -0.1510 -0.1317  0.0086
 4279SOL    HW114831   3.116   3.909   0.822 -0.2020  0.5336  1.7068
 4279SOL    HW214832   3.094   4.057   0.845 -0.3491  1.0373 -1.3569
 4280SOL     OW14833   2.898   5.584   8.552 -0.0688  0.2345 -0.0133
 4280SOL    HW114834   2.865   5.551   8.635 -0.5914 -1.8875 -0.9768
 4280SOL    HW214835   2.823   5.578   8.492  0.9173 -0.7221 -1.2249
 4281SOL     OW14836   8.828   8.164   1.460  0.2956  0.6714  0.6986
 4281SOL    HW114837   8.812   8.254   1.432  0.0178  0.3433 -0.2519
 4281SOL    HW214838   8.922   8.161   1.477  0.4060  0.9972  0.1785
 4282SOL     OW14839   1.030   1.958   5.790  0.8078 -0.1751 -0.1908
 4282SOL    HW114840   1.114   1.981   5.831  0.5618  0.9228 -0.2776
 4282SOL    HW214841   1.019   2.022   5.720  0.7394 -1.4127 -1.3577
 4283SOL     OW14842   6.384   8.301   4.730 -0.1258 -0.7513 -0.2288
 4283SOL    HW114843   6.466   8.281   4.775  0.6627 -0.5882 -1.5360
 4283SOL    HW214844   6.334   8.352   4.793  1.3992  0.4077  0.1087
 4284SOL     OW14845   6.882   4.052   8.255 -0.0853  0.2778  0.0964
 4284SOL    HW114846   6.857   3.959   8.248  0.8633 -0.1239  1.5111
 4284SOL    HW214847   6.976   4.049   8.275  0.1264  1.5863 -0.6387
 4285SOL     OW14848   3.851   4.668   7.769  0.4352 -0.3669  0.3556
 4285SOL    HW114849   3.939   4.632   7.758  0.5492 -0.9247  2.6409
 4285SOL    HW214850   3.860   4.760   7.745  1.8134 -0.2752  1.0984
 4286SOL     OW14851   7.623   0.163   2.344 -0.3625  0.3455 -0.0584
 4286SOL    HW114852   7.697   0.139   2.400  0.3848  1.3975 -0.5452
 4286SOL    HW214853   7.581   0.237   2.389 -1.2227 -0.3343  0.2849
 4287SOL     OW14854   4.668   2.233   1.975 -0.4581  0.0922 -0.2787
 4287SOL    HW114855   4.730   2.241   2.047 -1.2414  1.0367  0.3208
 4287SOL    HW214856   4.591   2.192   2.013 -0.6664  0.0735 -0.7088
 4288SOL     OW14857   4.270   1.571   0.405  0.3643 -0.1082  0.4899
 4288SOL    HW114858   4.175   1.560   0.410  0.5021 -2.0003 -0.1140
 4288SOL    HW214859   4.301   1.544   0.491  0.2779  2.3459  1.3646
 4289SOL     OW14860   4.784   6.223   7.564 -0.4953  0.8646  0.6848
 4289SOL    HW114861   4.762   6.313   7.538  1.3547  0.7295 -1.6605
 4289SOL    HW214862   4.778   6.172   7.483 -1.0667 -1.0916  1.8846
 4290SOL     OW14863   2.667   2.453   8.573  0.3511 -0.6914 -0.5523
 4290SOL    HW114864   2.707   2.380   8.527  1.8976 -0.3630  0.2139
 4290SOL    HW214865   2.677   2.432   8.666 -0.4194 -0.1451 -0.3283
 4291SOL     OW14866   5.769   6.747   1.352 -0.5714  0.2401  0.3946
 4291SOL    HW114867   5.775   6.694   1.431  1.2368 -0.8054 -0.3842
 4291SOL    HW214868   5.736   6.832   1.382  0.8547  0.1418  2.4236
 4292SOL     OW14869   5.465   5.880   5.144  0.6468 -0.1607 -0.4735
 4292SOL    HW114870   5.402   5.809   5.161  0.4607 -0.0920 -0.8580
 4292SOL    HW214871   5.425   5.958   5.182 -0.6253  0.3688 -2.6818
 4293SOL     OW14872   7.594   7.532   7.395  0.3130  0.5794  0.0659
 4293SOL    HW114873   7.527   7.505   7.458 -0.8758  0.7533 -1.0711
 4293SOL    HW214874   7.619   7.620   7.423  0.1863  0.4471  0.6013
 4294SOL     OW14875   8.661   0.710   3.528  0.0594 -0.0292  0.1581
 4294SOL    HW114876   8.734   0.769   3.509 -1.0019  1.4478  0.5622
 4294SOL    HW214877   8.598   0.726   3.457 -0.6246 -0.0264  0.7547
 4295SOL     OW14878   1.669   2.888   3.755 -0.5644  0.0351 -0.0122
 4295SOL    HW114879   1.627   2.853   3.834 -0.4693  1.6713  0.7986
 4295SOL    HW214880   1.603   2.879   3.686 -0.5357 -1.7144  0.1441
 4296SOL     OW14881   4.435   8.669   3.359 -0.9250  0.5723  0.0427
 4296SOL    HW114882   4.364   8.605   3.355  1.2017 -1.8877 -0.9280
 4296SOL    HW214883   4.496   8.633   3.423  0.7161  1.1965 -1.1197
 4297SOL     OW14884   5.490   0.962   2.352 -0.3213 -0.1255  0.0544
 4297SOL    HW114885   5.457   1.012   2.427  0.0339 -0.3221  0.3467
 4297SOL    HW214886   5.414   0.911   2.322  0.0963 -1.9687  1.8574
 4298SOL     OW14887   2.381   3.049   4.148 -0.3042 -0.1114 -0.1251
 4298SOL    HW114888   2.335   3.132   4.148 -1.9490 -0.9733 -0.2572
 4298SOL    HW214889   2.358   3.009   4.232  2.8100  0.7337  1.2727
 4299SOL     OW14890   7.690   5.669   5.691 -0.4466 -0.5667  0.4292
 4299SOL    HW114891   7.762   5.691   5.750 -1.7321  1.0225  1.5280
 4299SOL    HW214892   7.707   5.719   5.611 -1.8285  2.4350  1.8369
 4300SOL     OW14893   0.100   3.386   7.455  0.2526  0.0987  0.1855
 4300SOL    HW114894   0.124   3.479   7.456 -0.1680  0.2054  1.2137
 4300SOL    HW214895   0.143   3.349   7.532  1.8949 -0.9655 -1.1527
 4301SOL     OW14896   2.530   4.279   0.604 -0.1808 -0.0317 -0.0988
 4301SOL    HW114897   2.458   4.217   0.596  0.1387 -0.6989  1.8074
 4301SOL    HW214898   2.607   4.232   0.573 -0.0393 -0.4058  0.8022
 4302SOL     OW14899   6.849   0.229   1.935 -0.6168 -0.8156  0.2812
 4302SOL    HW114900   6.878   0.320   1.924  2.8898 -1.9913 -1.2986
 4302SOL    HW214901   6.849   0.193   1.847 -1.3349 -2.5872  0.9664
 4303SOL     OW14902   8.839   8.636   1.385  0.1066  0.0829  0.6834
 4303SOL    HW114903   8.771   8.700   1.405 -0.2918 -0.1861  0.2056
 4303SOL    HW214904   8.919   8.673   1.423  0.1776  1.5683 -0.7918
 4304SOL     OW14905   4.396   0.185   2.422 -0.7152  0.3385  0.2259
 4304SOL    HW114906   4.420   0.263   2.372 -0.8072 -0.0311 -0.4031
 4304SOL    HW214907   4.343   0.219   2.494 -0.3609  0.9059  0.2226
 4305SOL     OW14908   8.675   6.818   0.393  0.7353 -0.4378 -0.1763
 4305SOL    HW114909   8.748   6.801   0.452  0.3370 -1.4285  0.0618
 4305SOL    HW214910   8.597   6.811   0.448  0.4387  0.2930 -0.4898
 4306SOL     OW14911   0.932   5.985   2.595  0.1808  0.0628  0.4293
 4306SOL    HW114912   0.980   6.056   2.637  0.1708  0.3470 -0.0340
 4306SOL    HW214913   0.957   5.990   2.503  1.1114 -1.2800  0.5770
 4307SOL     OW14914   4.209   4.248   5.909  0.5353  0.0545 -0.0579
 4307SOL    HW114915   4.273   4.234   5.980 -0.8672 -0.7581  1.1187
 4307SOL    HW214916   4.222   4.174   5.850  0.9577  0.1221 -0.0529
 4308SOL     OW14917   5.590   8.226   2.680 -0.6251 -0.4993  0.1503
 4308SOL    HW114918   5.545   8.191   2.603  0.7226 -1.0213 -0.4396
 4308SOL    HW214919   5.549   8.311   2.695  0.4128  0.5546 -2.4199
 4309SOL     OW14920   4.537   2.305   5.130  0.3264  0.1124 -0.6219
 4309SOL    HW114921   4.478   2.379   5.144  0.1902  0.2447 -1.8023
 4309SOL    HW214922   4.601   2.312   5.201 -1.5123 -0.5263  1.2107
 4310SOL     OW14923   5.189   3.745   0.398  0.0827 -0.3858 -0.2655
 4310SOL    HW114924   5.270   3.706   0.365  0.0032 -0.8656  0.0952
 4310SOL    HW214925   5.206   3.760   0.492  0.8119  2.2318 -0.7247
 4311SOL     OW14926   7.397   0.454   0.585  0.0795 -0.8149  0.2625
 4311SOL    HW114927   7.449   0.396   0.529 -0.3922  0.0106 -1.0619
 4311SOL    HW214928   7.337   0.396   0.632  0.3643 -1.4980 -0.2166
 4312SOL     OW14929   2.221   1.980   1.314 -0.1082  0.4920  0.5350
 4312SOL    HW114930   2.190   1.951   1.228 -0.4743 -0.5663  1.0011
 4312SOL    HW214931   2.187   2.068   1.324  2.0031  1.6533 -1.4470
 4313SOL     OW14932   8.730   8.297   2.837  0.3760  0.1939  0.2470
 4313SOL    HW114933   8.666   8.248   2.786  0.8919  0.2155 -0.4367
 4313SOL    HW214934   8.803   8.312   2.776  0.5212  1.2064  0.6476
 4314SOL     OW14935   4.640   1.727   1.296  0.1259 -0.1344  0.1311
 4314SOL    HW114936   4.698   1.651   1.298  2.8164  1.7291 -0.5048
 4314SOL    HW214937   4.632   1.748   1.203  0.0622  0.7589  0.3253
 4315SOL     OW14938   3.721   2.588   3.623  0.5710  0.3537 -0.4188
 4315SOL    HW114939   3.771   2.658   3.665 -0.1925 -0.5123  2.0764
 4315SOL    HW214940   3.786   2.540   3.571  1.8768  0.6662  0.8545
 4316SOL     OW14941   4.132   8.225   5.686  0.3106 -0.4244 -0.1727
 4316SOL    HW114942   4.110   8.133   5.703  0.0702 -0.1543  1.0563
 4316SOL    HW214943   4.226   8.224   5.668  0.3546 -0.8826  0.0635
 4317SOL     OW14944   7.776   1.407   4.229  0.1764 -0.4954  0.6219
 4317SOL    HW114945   7.708   1.407   4.297 -0.3883 -2.1278  0.1143
 4317SOL    HW214946   7.787   1.499   4.207  0.3021  0.0814  2.8289
 4318SOL     OW14947   7.986   0.007   5.668 -0.7442 -0.0804 -0.2968
 4318SOL    HW114948   7.907   0.017   5.720 -1.4232 -2.0468 -0.8540
 4318SOL    HW214949   8.025  -0.075   5.700  1.7366  1.3980  0.7727
 4319SOL     OW14950   0.514   2.833   7.185  0.1111 -0.1556  0.2006
 4319SOL    HW114951   0.492   2.846   7.277  0.4566  0.2736  0.2207
 4319SOL    HW214952   0.432   2.803   7.145 -0.5810  1.5593  0.2562
 4320SOL     OW14953   4.128   0.050   4.639  0.3277 -0.0614 -0.2490
 4320SOL    HW114954   4.094   0.119   4.695 -0.8130 -0.7336 -0.0762
 4320SOL    HW214955   4.109   0.080   4.550 -0.3021 -0.2089 -0.1699
 4321SOL     OW14956   8.236   0.043   7.708 -0.2364  0.1087 -0.0158
 4321SOL    HW114957   8.286  -0.022   7.758  0.7650  0.1200 -0.9507
 4321SOL    HW214958   8.181  -0.009   7.649 -0.1925  0.1048 -0.0526
 4322SOL     OW14959   5.263   2.579   0.759  0.2434 -0.3307 -0.3257
 4322SOL    HW114960   5.261   2.578   0.854  3.0430  0.0900 -0.1814
 4322SOL    HW214961   5.296   2.493   0.734  0.1132 -0.2250 -0.8813
 4323SOL     OW14962   8.358   4.085   5.422 -0.7741 -0.3409 -0.2754
 4323SOL    HW114963   8.375   3.993   5.443 -0.4863  0.0100  1.1561
 4323SOL    HW214964   8.266   4.099   5.444 -0.8663 -0.3270 -0.6651
 4324SOL     OW14965   4.551   3.620   4.504  0.9089  0.0563 -0.0934
 4324SOL    HW114966   4.513   3.687   4.448 -0.1637 -1.2160 -0.9359
 4324SOL    HW214967   4.607   3.568   4.445  1.8633  0.2919  0.5794
 4325SOL     OW14968   7.143   8.269   3.733  0.2530  0.2734 -0.7495
 4325SOL    HW114969   7.201   8.324   3.680 -0.4994  1.3426 -0.4964
 4325SOL    HW214970   7.067   8.252   3.676  1.2713 -2.1214 -1.5275
 4326SOL     OW14971   6.006   4.086   7.014  0.1546 -0.3216 -0.7081
 4326SOL    HW114972   6.089   4.041   6.999  1.0132  0.8307  0.3782
 4326SOL    HW214973   6.009   4.111   7.107 -2.1059 -1.6254 -0.2153
 4327SOL     OW14974   2.944   6.035   7.339 -0.2606 -0.1364 -0.4553
 4327SOL    HW114975   3.003   5.987   7.397 -0.8220 -0.0870  0.1827
 4327SOL    HW214976   2.964   6.127   7.354 -0.9230 -0.0938  0.2532
 4328SOL     OW14977   7.456   5.271   3.321 -0.0084 -0.1223 -0.1259
 4328SOL    HW114978   7.433   5.343   3.379 -0.2445 -0.2903 -0.0095
 4328SOL    HW214979   7.466   5.195   3.379 -1.3896 -0.5566 -0.4160
 4329SOL     OW14980   7.493   2.757   3.402  0.3023  0.4440  0.2789
 4329SOL    HW114981   7.406   2.776   3.438  1.5753  0.7394  3.4797
 4329SOL    HW214982   7.533   2.843   3.388  0.3760  0.2912 -0.5260
 4330SOL     OW14983   0.476   3.501   4.405  0.1381  0.2008  0.5243
 4330SOL    HW114984   0.425   3.526   4.328  0.2317 -0.1682  0.3414
 4330SOL    HW214985   0.411   3.463   4.464 -0.1421  1.5026  1.1116
 4331SOL     OW14986   3.062   4.830   0.020 -0.3766  0.4911 -0.1769
 4331SOL    HW114987   2.970   4.811   0.035 -0.0175 -1.2134  0.1077
 4331SOL    HW214988   3.063   4.910  -0.033 -1.9188  2.4913  2.5453
 4332SOL     OW14989   3.555   2.095   2.234 -0.0323  0.1415  0.0434
 4332SOL    HW114990   3.488   2.066   2.296  0.0864  0.8621  0.5259
 4332SOL    HW214991   3.512   2.162   2.181 -0.2495 -0.7430 -0.9350
 4333SOL     OW14992   4.295   0.501   2.144 -0.6433 -0.0315 -0.4264
 4333SOL    HW114993   4.216   0.537   2.184 -0.1760  0.9355 -0.3486
 4333SOL    HW214994   4.267   0.475   2.056 -0.8170  1.2801 -0.7754
 4334SOL     OW14995   7.932   8.878   2.461 -0.1568  0.4282  0.1862
 4334SOL    HW114996   7.873   8.876   2.537  0.8335 -0.2557  0.9566
 4334SOL    HW214997   7.972   8.964   2.463 -0.9646  0.8334 -0.2392
 4335SOL     OW14998   0.180   6.265   3.866  0.2472 -0.5404  0.4237
 4335SOL    HW114999   0.162   6.359   3.869  0.1343 -0.5133 -0.7543
 4335SOL    HW215000   0.094   6.225   3.851  0.3128 -0.8276  0.8085
 4336SOL     OW15001   7.523   2.948   0.694  0.7392  0.4620 -0.3251
 4336SOL    HW115002   7.573   3.025   0.666  3.3198 -0.7913  0.5136
 4336SOL    HW215003   7.583   2.875   0.681 -1.3836 -1.3520 -0.4187
 4337SOL     OW15004   7.713   1.088   2.415 -0.3611 -0.4329  0.5142
 4337SOL    HW115005   7.755   1.163   2.455 -2.7477  1.0993  0.3614
 4337SOL    HW215006   7.711   1.108   2.321  0.0609 -1.2762  0.3151
 4338SOL     OW15007   4.880   2.774   2.974 -0.3403 -0.1956 -0.3269
 4338SOL    HW115008   4.951   2.730   2.926  0.9833  0.2264  1.1838
 4338SOL    HW215009   4.915   2.861   2.994  0.0326 -1.0133  3.1626
 4339SOL     OW15010   8.430   2.103   1.104  0.2143  0.3944 -0.1811
 4339SOL    HW115011   8.469   2.112   1.017  0.3519 -0.2903 -0.1900
 4339SOL    HW215012   8.403   2.012   1.110  0.4203  0.3692  0.5829
 4340SOL     OW15013   4.257   3.629   5.284  0.6796 -0.3799  0.1905
 4340SOL    HW115014   4.299   3.672   5.210  0.6177 -0.1504  0.2865
 4340SOL    HW215015   4.167   3.661   5.283  1.1104  1.0278  1.3976
 4341SOL     OW15016   7.904   3.994   8.882  0.5923 -0.4158  0.2438
 4341SOL    HW115017   7.854   4.003   8.801 -0.3690 -1.8897  0.6256
 4341SOL    HW215018   7.863   3.921   8.927  0.2760  1.1526  2.6872
 4342SOL     OW15019   1.792   7.329   3.917 -0.4263  0.4346  0.3523
 4342SOL    HW115020   1.794   7.386   3.840  1.2886  0.8273  0.6502
 4342SOL    HW215021   1.764   7.385   3.989  1.0755  0.9044  0.6078
 4343SOL     OW15022   5.948   1.564   4.003  0.4888  0.6114 -0.3389
 4343SOL    HW115023   5.972   1.475   3.978  0.6945  0.4741  0.3346
 4343SOL    HW215024   5.872   1.553   4.060  1.9628  0.6676  1.7393
 4344SOL     OW15025   8.452   7.058   7.144  0.6927 -0.1462  0.3014
 4344SOL    HW115026   8.391   6.985   7.148  0.8677 -0.3764 -0.7934
 4344SOL    HW215027   8.406   7.126   7.095  1.8735 -0.9640 -2.1168
 4345SOL     OW15028   4.842   1.775   4.278 -0.1982  0.0790 -0.5286
 4345SOL    HW115029   4.897   1.782   4.199 -0.1687 -0.5299 -0.5664
 4345SOL    HW215030   4.898   1.728   4.341  0.2920  1.7505  0.3305
 4346SOL     OW15031   1.454   6.314   0.521  0.1575 -0.0258  0.2330
 4346SOL    HW115032   1.475   6.359   0.602 -1.2565 -0.7223  1.0152
 4346SOL    HW215033   1.369   6.349   0.495  0.7635  0.4870 -1.1905
 4347SOL     OW15034   8.132   8.419   5.627  0.3056 -0.0822  0.1722
 4347SOL    HW115035   8.167   8.338   5.663  0.7616 -1.0353 -2.2329
 4347SOL    HW215036   8.039   8.402   5.614 -0.3445  1.0249  2.7507
 4348SOL     OW15037   8.251   3.573   3.390  0.3782 -0.4857 -0.1229
 4348SOL    HW115038   8.243   3.479   3.374  1.0518 -0.5926  0.1659
 4348SOL    HW215039   8.283   3.580   3.479  1.5011 -0.0200 -0.5482
 4349SOL     OW15040   6.142   1.593   8.587  0.2143  0.2654 -0.0631
 4349SOL    HW115041   6.154   1.593   8.682 -0.0515  0.0587 -0.0297
 4349SOL    HW215042   6.072   1.657   8.571 -0.3616 -0.3546 -0.0401
 4350SOL     OW15043   5.557   0.182   5.567  0.5559 -0.2689  0.3324
 4350SOL    HW115044   5.581   0.264   5.611  1.7390 -0.1637 -0.4470
 4350SOL    HW215045   5.556   0.204   5.474  0.5506 -1.0543  0.1396
 4351SOL     OW15046   2.583   3.483   6.612 -0.5908  0.0773  0.0253
 4351SOL    HW115047   2.632   3.433   6.547  1.6183  1.7443  0.2716
 4351SOL    HW215048   2.533   3.418   6.661  2.7272 -2.1055  0.8794
 4352SOL     OW15049   3.046   6.037   4.023  0.0124 -0.1831 -0.1891
 4352SOL    HW115050   3.071   5.966   4.082 -1.4958 -1.2588 -0.7866
 4352SOL    HW215051   3.124   6.093   4.020  0.6074 -0.8100  1.7208
 4353SOL     OW15052   0.283   4.526   3.502 -0.2544 -0.3273 -0.3844
 4353SOL    HW115053   0.196   4.490   3.522 -0.0264 -1.6605 -1.5827
 4353SOL    HW215054   0.309   4.571   3.582 -1.2687 -1.4905  0.6612
 4354SOL     OW15055   1.952   3.587   2.901  0.4269  0.0183  0.6165
 4354SOL    HW115056   1.925   3.638   2.825 -0.6173  0.4746  1.2775
 4354SOL    HW215057   1.886   3.519   2.910  1.6649 -1.3352 -0.0981
 4355SOL     OW15058   6.625   0.931   4.544  0.6349 -0.5198 -0.0414
 4355SOL    HW115059   6.697   0.933   4.607 -1.1996  0.2129  2.1648
 4355SOL    HW215060   6.621   1.020   4.509  1.4972 -0.8633 -1.0608
 4356SOL     OW15061   4.680   0.527   5.619 -0.1259  0.5830 -0.0158
 4356SOL    HW115062   4.688   0.612   5.575 -0.2707  1.2669  1.2284
 4356SOL    HW215063   4.705   0.544   5.710 -1.3710 -0.4268  0.5552
 4357SOL     OW15064   0.257   1.454   7.752  0.7281  0.1344 -0.2255
 4357SOL    HW115065   0.304   1.381   7.712 -0.1903 -0.4741 -0.2282
 4357SOL    HW215066   0.231   1.508   7.677  2.5269  1.1967 -0.1449
 4358SOL     OW15067   8.380   3.541   8.479 -0.1085 -0.4328 -0.4051
 4358SOL    HW115068   8.378   3.497   8.564  0.1087  0.2218 -0.0522
 4358SOL    HW215069   8.351   3.630   8.498  1.8405  0.3062 -0.6599
 4359SOL     OW15070   4.275   6.585   6.838 -0.3180  0.1307 -0.0546
 4359SOL    HW115071   4.221   6.507   6.852 -0.5123  0.1565 -0.6456
 4359SOL    HW215072   4.312   6.604   6.924 -1.1755  0.0563  0.3383
 4360SOL     OW15073   1.230   7.124   0.862  0.2406 -0.2517 -0.4683
 4360SOL    HW115074   1.253   7.213   0.835  1.5287 -0.7270 -1.0300
 4360SOL    HW215075   1.291   7.068   0.813 -0.5593 -1.4417 -0.1386
 4361SOL     OW15076   4.768   7.949   2.856 -0.0606 -0.4974  0.1351
 4361SOL    HW115077   4.731   7.890   2.922  0.0007  0.2119  0.8106
 4361SOL    HW215078   4.863   7.936   2.862 -0.1007 -1.1593 -0.5099
 4362SOL     OW15079   4.040   3.980   7.270  0.5208 -0.2667  0.3974
 4362SOL    HW115080   3.986   3.960   7.347  2.7808 -4.5572  1.1863
 4362SOL    HW215081   4.116   4.025   7.305  0.0834  0.7109  0.1221
 4363SOL     OW15082   1.172   7.694   2.708 -0.0170 -0.0088  0.6421
 4363SOL    HW115083   1.162   7.747   2.787 -0.0065 -0.6234  1.0693
 4363SOL    HW215084   1.184   7.757   2.638  2.2337  0.5580  1.4358
 4364SOL     OW15085   2.023   0.494   6.811  0.1223 -0.0492 -0.6503
 4364SOL    HW115086   2.024   0.430   6.740 -1.4097 -2.1337  1.0955
 4364SOL    HW215087   2.086   0.460   6.874 -2.2071 -1.1362  1.2511
 4365SOL     OW15088   7.798   7.338   2.636  0.9790 -0.8112  0.3491
 4365SOL    HW115089   7.733   7.398   2.674  0.5338 -0.1320 -1.3787
 4365SOL    HW215090   7.768   7.325   2.546  2.5481 -1.5128 -0.1042
 4366SOL     OW15091   5.474   0.598   2.216  0.1037  0.2484 -0.0243
 4366SOL    HW115092   5.458   0.505   2.230 -1.8044  0.5327  0.0544
 4366SOL    HW215093   5.564   0.612   2.244 -0.2038 -1.2041  1.9014
 4367SOL     OW15094   4.587   6.722   5.152  0.2578 -0.4840 -0.3844
 4367SOL    HW115095   4.577   6.799   5.207  2.3001  0.3621 -1.0903
 4367SOL    HW215096   4.632   6.659   5.207 -1.1584 -1.1054  0.1014
 4368SOL     OW15097   2.167   3.908   1.629 -0.0728  0.5836 -0.0240
 4368SOL    HW115098   2.163   3.900   1.534 -2.4003  2.5574 -0.1855
 4368SOL    HW215099   2.081   3.879   1.659  0.8620 -0.6812  1.5948
 4369SOL     OW15100   8.304   6.665   4.683 -0.0667 -0.0283  0.4072
 4369SOL    HW115101   8.384   6.653   4.734  0.2320  1.2221  0.2514
 4369SOL    HW215102   8.242   6.705   4.743 -0.4697 -0.6741  0.4284
 4370SOL     OW15103   0.474   8.410   1.329 -0.3010 -0.4248 -0.1217
 4370SOL    HW115104   0.554   8.454   1.358 -0.3077  1.1253 -2.2225
 4370SOL    HW215105   0.498   8.369   1.246 -1.9683  1.3245 -1.5710
 4371SOL     OW15106   7.424   7.178   3.111 -0.1719 -0.0593  0.2811
 4371SOL    HW115107   7.351   7.116   3.121  0.7112 -1.1045  0.3333
 4371SOL    HW215108   7.402   7.228   3.032 -0.3325 -1.2368 -0.4435
 4372SOL     OW15109   5.734   8.448   3.495  0.0037  0.0309 -0.0278
 4372SOL    HW115110   5.648   8.476   3.463 -0.4369 -1.1888  0.0336
 4372SOL    HW215111   5.732   8.467   3.589 -1.4338 -2.7514  0.6186
 4373SOL     OW15112   7.254   8.102   6.365  0.4965  0.0986  0.0596
 4373SOL    HW115113   7.304   8.028   6.400 -1.1680 -0.7189  0.7955
 4373SOL    HW215114   7.213   8.068   6.285  1.8927  1.0748 -1.1266
 4374SOL     OW15115   7.384   2.461   5.193 -0.1427 -0.4625  0.4610
 4374SOL    HW115116   7.417   2.545   5.161 -1.6004 -0.0055  0.1106
 4374SOL    HW215117   7.418   2.397   5.131  1.4343 -0.2336  1.0322
 4375SOL     OW15118   5.841   0.854   2.116  0.1437  0.5393 -0.3178
 4375SOL    HW115119   5.863   0.882   2.028  0.3063 -1.4370 -0.9520
 4375SOL    HW215120   5.923   0.864   2.166 -0.1711  2.4876 -0.1122
 4376SOL     OW15121   7.694   0.456   6.887  0.0733 -0.0735  0.1252
 4376SOL    HW115122   7.705   0.475   6.793 -0.0388 -0.9337 -0.0718
 4376SOL    HW215123   7.725   0.366   6.896  1.9131  0.6239  1.2806
 4377SOL     OW15124   3.769   3.546   4.239  0.1387 -0.2467  0.2906
 4377SOL    HW115125   3.816   3.476   4.283  0.9352 -1.8094 -2.7368
 4377SOL    HW215126   3.834   3.616   4.228  1.4281 -1.6841 -2.2591
 4378SOL     OW15127   6.512   8.481   5.896 -0.1772  0.2819 -0.3753
 4378SOL    HW115128   6.605   8.484   5.876  0.1205 -2.7091  0.1219
 4378SOL    HW215129   6.479   8.568   5.872  2.6989  1.4020 -0.5794
 4379SOL     OW15130   8.330   4.522   3.920  0.0797 -0.0938  0.3146
 4379SOL    HW115131   8.329   4.445   3.978 -0.8152 -0.8992 -0.7236
 4379SOL    HW215132   8.419   4.526   3.887  0.8515  0.8909  2.3606
 4380SOL     OW15133   0.173   2.673   8.413  0.8212 -0.4672  0.2980
 4380SOL    HW115134   0.158   2.767   8.402 -0.2446 -0.7435 -0.7837
 4380SOL    HW215135   0.267   2.662   8.399  1.1872  0.5738  1.6520
 4381SOL     OW15136   7.855   5.701   5.172 -0.1537 -0.0123 -0.6816
 4381SOL    HW115137   7.890   5.617   5.202 -0.6293  0.4759  1.4136
 4381SOL    HW215138   7.881   5.706   5.080  0.5169 -2.1078 -0.6717
 4382SOL     OW15139   5.612   2.453   0.345 -0.6523  0.3809  0.3140
 4382SOL    HW115140   5.617   2.496   0.430 -0.8037 -0.2532  0.6510
 4382SOL    HW215141   5.570   2.369   0.363 -1.3825  0.5478 -0.5043
 4383SOL     OW15142   0.041   8.863   7.743 -0.0393  0.5651  0.1299
 4383SOL    HW115143   0.055   8.872   7.838  3.2211  0.5964 -0.2400
 4383SOL    HW215144   0.049   8.769   7.727  0.6497  0.6782 -0.2308
 4384SOL     OW15145   6.668   7.523   8.819 -0.2865  0.3741 -0.4715
 4384SOL    HW115146   6.699   7.465   8.889 -0.4056  0.8171 -0.0467
 4384SOL    HW215147   6.689   7.611   8.850  1.7026  0.5071 -1.9651
 4385SOL     OW15148   8.051   7.902   7.809 -0.1226  0.0138  0.3205
 4385SOL    HW115149   7.966   7.862   7.792 -0.1222  0.2303 -0.2356
 4385SOL    HW215150   8.032   7.995   7.822 -0.0158 -0.0021  0.5836
 4386SOL     OW15151   3.513   8.482   3.393 -0.0116 -0.6652 -0.0408
 4386SOL    HW115152   3.427   8.506   3.358 -0.5500 -0.9180  1.0597
 4386SOL    HW215153   3.566   8.464   3.316 -1.6963 -3.1016 -0.7435
 4387SOL     OW15154   3.955   3.983   1.831  0.1791 -0.9090  0.3646
 4387SOL    HW115155   3.905   3.903   1.844  1.5521 -1.6979  0.9063
 4387SOL    HW215156   3.999   3.998   1.914  0.3110  0.1593  0.1212
 4388SOL     OW15157   4.029   4.029   8.704  0.5734  1.1773 -0.4275
 4388SOL    HW115158   4.031   4.057   8.612  2.1144  1.5356 -0.2991
 4388SOL    HW215159   4.113   4.056   8.740  0.3294  0.2965  0.8866
 4389SOL     OW15160   8.759   0.154   1.234 -0.0904 -0.2656  0.0861
 4389SOL    HW115161   8.796   0.239   1.257  0.0879 -0.3943  0.2679
 4389SOL    HW215162   8.749   0.158   1.138 -0.3016  0.0467  0.1174
 4390SOL     OW15163   5.786   0.509   1.474  0.1032  0.0135  0.4941
 4390SOL    HW115164   5.778   0.605   1.477  1.1217  0.1817 -1.3146
 4390SOL    HW215165   5.699   0.478   1.501 -0.2028  1.4210  1.2859
 4391SOL     OW15166   4.546   1.385   4.421  0.3640  0.0679  0.6723
 4391SOL    HW115167   4.579   1.444   4.490 -0.9909 -0.1430  1.5346
 4391SOL    HW215168   4.582   1.420   4.340  1.4941  0.6946  1.4179
 4392SOL     OW15169   8.021   2.124   7.701 -0.3841  0.3080 -0.2015
 4392SOL    HW115170   8.032   2.052   7.762 -0.8413 -1.7449 -2.4110
 4392SOL    HW215171   7.928   2.124   7.679 -0.2780  1.1342 -0.7335
 4393SOL     OW15172   4.766   2.627   5.863  0.2016 -0.6137  1.0137
 4393SOL    HW115173   4.854   2.599   5.888  0.8213  1.5273  1.3841
 4393SOL    HW215174   4.780   2.698   5.801 -1.3070 -1.3471 -0.2449
 4394SOL     OW15175   1.032   4.279   4.086  0.3470  0.1254  0.4988
 4394SOL    HW115176   0.938   4.291   4.075  0.2164 -0.2659  1.1774
 4394SOL    HW215177   1.071   4.334   4.018 -0.3681  0.2730  0.2015
 4395SOL     OW15178   8.454   7.867   6.668 -0.2782  0.6436 -0.2412
 4395SOL    HW115179   8.499   7.870   6.584 -0.5826  0.6554 -0.4049
 4395SOL    HW215180   8.457   7.957   6.700  0.3622  0.5310  0.0446
 4396SOL     OW15181   0.651   3.615   6.133 -0.3646 -0.7509 -0.9509
 4396SOL    HW115182   0.677   3.665   6.055  0.4062  0.1861 -0.1242
 4396SOL    HW215183   0.685   3.527   6.117 -0.9084 -0.7855 -2.0163
 4397SOL     OW15184   5.381   5.562   4.603 -0.0201  0.1075 -0.2693
 4397SOL    HW115185   5.314   5.576   4.536 -0.7548 -2.7219 -0.2420
 4397SOL    HW215186   5.462   5.550   4.554 -0.1042  0.3691 -0.4795
 4398SOL     OW15187   5.219   0.859   2.505  0.7372 -0.4816  0.0926
 4398SOL    HW115188   5.284   0.913   2.551 -0.2158  0.8666 -0.0800
 4398SOL    HW215189   5.152   0.841   2.571  0.8380 -1.0982  0.0284
 4399SOL     OW15190   6.284   8.860   5.211  0.2103  0.5784  0.5351
 4399SOL    HW115191   6.240   8.935   5.251  0.6794  1.5555 -0.7312
 4399SOL    HW215192   6.216   8.793   5.206 -0.5137  1.2836  0.7043
 4400SOL     OW15193   0.377   8.080   0.864  0.1910  0.5256 -0.6303
 4400SOL    HW115194   0.296   8.125   0.890 -0.6305 -1.2098  0.0319
 4400SOL    HW215195   0.420   8.061   0.947  1.2812  1.4042 -0.9826
 4401SOL     OW15196   4.889   6.151   0.449  0.1741 -0.3651  0.0428
 4401SOL    HW115197   4.881   6.169   0.542  0.4474  0.3757 -0.0733
 4401SOL    HW215198   4.800   6.158   0.415  0.3758  1.7977 -0.1706
 4402SOL     OW15199   2.145   4.165   6.521 -0.7484 -0.0682 -0.8233
 4402SOL    HW115200   2.070   4.146   6.464 -1.7562  0.7902  0.1721
 4402SOL    HW215201   2.116   4.239   6.574  0.8406  0.3104 -0.4488
 4403SOL     OW15202   1.829   7.340   2.783 -0.8511 -0.1274 -0.3002
 4403SOL    HW115203   1.851   7.390   2.705 -2.1523  0.8392 -0.0896
 4403SOL    HW215204   1.880   7.260   2.776  1.4441  1.2624 -0.5933
 4404SOL     OW15205   0.717   6.236   4.319  0.6935  0.2887  0.4324
 4404SOL    HW115206   0.710   6.303   4.252 -1.0428 -0.1287  0.1571
 4404SOL    HW215207   0.752   6.160   4.274  1.1046  0.4950  0.3924
 4405SOL     OW15208   2.121   8.223   8.716  0.0317  0.1194  0.1458
 4405SOL    HW115209   2.203   8.272   8.707 -1.6111  3.2700  1.0433
 4405SOL    HW215210   2.138   8.160   8.786  2.0983 -0.3953 -0.7337
 4406SOL     OW15211   1.653   0.234   1.656 -0.4620 -0.2944  0.8897
 4406SOL    HW115212   1.684   0.258   1.568  0.5873  0.2238  1.3823
 4406SOL    HW215213   1.723   0.179   1.691 -0.4902  0.1913  1.7175
 4407SOL     OW15214   0.448   3.547   7.679 -0.1562  0.3454 -0.1306
 4407SOL    HW115215   0.370   3.598   7.658  0.6228  1.4167 -0.4732
 4407SOL    HW215216   0.513   3.574   7.615  1.0925  0.8693  1.2978
 4408SOL     OW15217   6.836   7.787   6.928 -0.2784 -0.2979  0.4649
 4408SOL    HW115218   6.923   7.750   6.944  0.4188  1.3064  0.6012
 4408SOL    HW215219   6.804   7.814   7.014 -1.5750 -2.1739  0.6232
 4409SOL     OW15220   7.050   6.015   2.696  0.1596  0.3470  0.4947
 4409SOL    HW115221   7.036   6.001   2.602  0.2883  0.5079  0.4500
 4409SOL    HW215222   7.120   5.954   2.719 -1.2710 -1.1938  0.9392
 4410SOL     OW15223   4.376   3.777   8.739  0.0924  0.0517 -0.2240
 4410SOL    HW115224   4.337   3.864   8.730  0.4973  0.2235 -0.3229
 4410SOL    HW215225   4.391   3.748   8.649  1.3910  0.5300 -0.1774
 4411SOL     OW15226   2.227   0.731   8.603 -0.9479  0.5452 -0.1114
 4411SOL    HW115227   2.240   0.784   8.524  0.5718  1.6278  0.8094
 4411SOL    HW215228   2.145   0.765   8.641 -0.6756  1.3528 -0.2260
 4412SOL     OW15229   8.272   2.652   1.098  0.2702 -0.7845 -0.0380
 4412SOL    HW115230   8.231   2.646   1.011 -0.1516 -0.2973  0.1198
 4412SOL    HW215231   8.346   2.592   1.094 -0.6046 -1.8697 -0.2467
 4413SOL     OW15232   0.803   6.423   3.761 -0.2956  0.7290 -0.2002
 4413SOL    HW115233   0.864   6.351   3.742 -0.1788  1.2804 -2.0788
 4413SOL    HW215234   0.720   6.379   3.783 -0.0383  0.0220 -0.6076
 4414SOL     OW15235   4.971   3.851   4.293 -0.1483 -0.0659  0.0045
 4414SOL    HW115236   4.920   3.777   4.257 -1.4799  0.2871  1.0705
 4414SOL    HW215237   4.935   3.864   4.380  1.3230  0.6962  0.5293
 4415SOL     OW15238   4.710   2.977   4.371  0.1445  0.0116 -0.3503
 4415SOL    HW115239   4.771   2.939   4.435 -1.2145 -0.2508  0.8552
 4415SOL    HW215240   4.690   2.904   4.311 -1.3760 -0.8876  1.1375
 4416SOL     OW15241   6.656   0.489   0.879 -0.2692 -0.1652 -0.0757
 4416SOL    HW115242   6.685   0.442   0.957  0.5441  1.9172  0.9668
 4416SOL    HW215243   6.610   0.566   0.913 -2.1467 -0.4642 -1.7002
 4417SOL     OW15244   2.829   5.706   3.696 -0.6414  0.3391 -0.3288
 4417SOL    HW115245   2.868   5.631   3.652 -2.4696 -0.2866 -0.9928
 4417SOL    HW215246   2.845   5.780   3.637 -2.5235 -0.3794 -1.8606
 4418SOL     OW15247   3.176   1.492   0.404  0.5137  0.0649  0.1577
 4418SOL    HW115248   3.200   1.581   0.427  2.0351  0.2017 -1.6469
 4418SOL    HW215249   3.256   1.441   0.418 -0.3247 -1.0269  1.1418
 4419SOL     OW15250   8.337   6.310   7.936  0.3754 -0.2849  0.2543
 4419SOL    HW115251   8.290   6.238   7.979  1.3419 -0.7756  0.5105
 4419SOL    HW215252   8.362   6.368   8.008 -1.4529  0.9648 -0.0662
 4420SOL     OW15253   2.800   4.353   3.234 -0.0963 -0.7510 -0.4687
 4420SOL    HW115254   2.774   4.438   3.198  2.2330  0.7322  1.1086
 4420SOL    HW215255   2.758   4.349   3.320  0.4570 -0.7996 -0.1945
 4421SOL     OW15256   5.691   4.456   0.586  0.2091 -0.1595  0.6149
 4421SOL    HW115257   5.757   4.465   0.655  0.8152 -1.4899  0.2311
 4421SOL    HW215258   5.684   4.362   0.571 -0.3237  0.0717 -0.7514
 4422SOL     OW15259   4.831   8.233   7.440  0.0959  0.0646 -0.4954
 4422SOL    HW115260   4.828   8.143   7.473 -1.5614 -0.2871 -1.4942
 4422SOL    HW215261   4.895   8.277   7.496 -1.7921 -0.7536  2.5046
 4423SOL     OW15262   1.137   3.349   2.980  0.5570  0.2192 -0.0603
 4423SOL    HW115263   1.164   3.350   2.889 -1.4644 -0.2297 -0.7099
 4423SOL    HW215264   1.199   3.289   3.023  1.3215  0.1875 -1.1770
 4424SOL     OW15265   1.907   6.915   2.208 -0.1043  0.4196 -0.5167
 4424SOL    HW115266   1.837   6.851   2.190 -1.0580  1.1751  0.3392
 4424SOL    HW215267   1.939   6.941   2.121  0.4428 -1.3322 -0.8838
 4425SOL     OW15268   2.549   8.837   5.693 -0.0508 -0.1526  0.6925
 4425SOL    HW115269   2.596   8.758   5.666 -0.1675  0.1804 -0.5623
 4425SOL    HW215270   2.615   8.907   5.687  0.2812 -0.2577  2.6117
 4426SOL     OW15271   2.311   0.815   5.291 -0.4068  0.0161 -0.0832
 4426SOL    HW115272   2.346   0.726   5.300  0.6160  0.5666  1.8140
 4426SOL    HW215273   2.293   0.824   5.197  2.0911 -1.2371 -0.7688
 4427SOL     OW15274   4.821   7.949   7.443  0.2358  0.6378  0.2769
 4427SOL    HW115275   4.799   7.930   7.351 -0.8311 -0.6334  0.7566
 4427SOL    HW215276   4.908   7.911   7.455 -0.7221 -1.6568  0.4656
 4428SOL     OW15277   2.532   3.258   3.818  0.3048 -0.1243  0.6034
 4428SOL    HW115278   2.449   3.282   3.860  0.3223  1.1456 -0.0470
 4428SOL    HW215279   2.579   3.209   3.885  0.2682  1.7099  2.0509
 4429SOL     OW15280   0.671   3.078   2.211  0.9575 -0.5955 -0.2815
 4429SOL    HW115281   0.732   3.086   2.284  0.1188  0.4808  0.3321
 4429SOL    HW215282   0.675   2.986   2.186  2.2129 -0.7123  0.2726
 4430SOL     OW15283   5.760   0.860   0.962 -0.1911 -0.0227 -0.4301
 4430SOL    HW115284   5.741   0.824   1.048  1.5141 -0.8692 -0.3712
 4430SOL    HW215285   5.819   0.933   0.978  3.5568 -2.6502 -0.9743
 4431SOL     OW15286   8.614   7.198   5.074 -0.1199 -0.0785  0.5225
 4431SOL    HW115287   8.528   7.161   5.093 -0.3020 -0.0141 -0.1476
 4431SOL    HW215288   8.596   7.274   5.019  0.3947 -0.3515 -0.0384
 4432SOL     OW15289   1.847   1.730   6.295  0.3349  0.1547  0.0678
 4432SOL    HW115290   1.767   1.775   6.268  0.5031  0.2562 -0.2698
 4432SOL    HW215291   1.820   1.639   6.307 -0.3550  0.5890  2.2592
 4433SOL     OW15292   6.524   1.654   8.619 -0.2757  0.2911  0.1735
 4433SOL    HW115293   6.604   1.609   8.591 -0.8773  0.2493 -1.6110
 4433SOL    HW215294   6.541   1.678   8.710  1.4622 -0.3973  0.0775
 4434SOL     OW15295   4.383   0.712   0.524 -0.5729 -0.6585 -0.1141
 4434SOL    HW115296   4.449   0.643   0.513  0.2867  0.2041 -0.4871
 4434SOL    HW215297   4.299   0.665   0.522 -0.1147 -1.4877 -2.2573
 4435SOL     OW15298   7.202   5.636   2.578 -0.4862  0.4751  0.1234
 4435SOL    HW115299   7.280   5.603   2.623 -1.2511 -1.4661  0.1356
 4435SOL    HW215300   7.233   5.655   2.489 -0.0794 -0.7759 -0.0222
 4436SOL     OW15301   4.092   8.489   8.358 -0.0009 -0.1018 -0.1926
 4436SOL    HW115302   4.056   8.424   8.417 -0.7441  0.9284  0.5172
 4436SOL    HW215303   4.130   8.556   8.415  0.0707  0.4643 -0.8843
 4437SOL     OW15304   4.902   3.858   2.240  0.1438 -0.6661 -0.0389
 4437SOL    HW115305   4.886   3.825   2.152 -1.1988  0.7268 -0.3553
 4437SOL    HW215306   4.861   3.945   2.241 -0.0902 -0.7598  2.0446
 4438SOL     OW15307   3.299   1.361   6.267 -0.3273  0.0219 -0.1815
 4438SOL    HW115308   3.289   1.351   6.172 -2.1139 -1.5935  0.1396
 4438SOL    HW215309   3.342   1.281   6.295 -3.3762 -1.3855  0.8270
 4439SOL     OW15310   2.459   0.529   1.151 -0.3891 -0.2907  0.1712
 4439SOL    HW115311   2.379   0.568   1.187 -1.1886 -0.2550 -1.5252
 4439SOL    HW215312   2.519   0.602   1.142 -1.3425  0.3452 -1.5559
 4440SOL     OW15313   5.472   6.229   5.198  0.5494 -0.6916 -0.4477
 4440SOL    HW115314   5.544   6.228   5.261 -0.0408 -0.3891  0.2448
 4440SOL    HW215315   5.449   6.321   5.188  0.5933 -0.7403 -1.0671
 4441SOL     OW15316   8.096   2.035   6.100  0.2816 -0.5206 -0.1227
 4441SOL    HW115317   8.128   2.051   6.011 -1.8095  1.5097 -0.6258
 4441SOL    HW215318   8.152   2.090   6.155  0.6050 -0.5873 -0.3798
 4442SOL     OW15319   5.751   5.581   5.505  0.4814  0.2504  0.4450
 4442SOL    HW115320   5.774   5.558   5.415  2.5367 -0.9508  1.2307
 4442SOL    HW215321   5.737   5.497   5.549 -0.8846  0.8331  1.1998
 4443SOL     OW15322   6.105   0.844   8.112 -0.2873 -0.7662  0.2715
 4443SOL    HW115323   6.036   0.793   8.154 -0.9779 -0.4738 -0.4725
 4443SOL    HW215324   6.130   0.792   8.036  0.0376 -0.6879  0.3245
 4444SOL     OW15325   4.285   5.687   7.740  1.0147 -0.0413 -0.2618
 4444SOL    HW115326   4.371   5.651   7.720  1.7565  1.2876  0.3781
 4444SOL    HW215327   4.244   5.623   7.798  1.4382 -0.8295 -0.8229
 4445SOL     OW15328   2.614   4.234   1.935  0.1305  0.0074  0.2961
 4445SOL    HW115329   2.529   4.249   1.893 -0.7740 -1.9017  1.3144
 4445SOL    HW215330   2.646   4.153   1.897  0.1866 -0.7425  1.8462
 4446SOL     OW15331   6.675   7.844   8.450 -0.3565 -0.5199  0.1374
 4446SOL    HW115332   6.624   7.861   8.530 -1.7838 -0.1627 -0.8243
 4446SOL    HW215333   6.754   7.897   8.462 -0.7746 -0.0726  1.0927
 4447SOL     OW15334   1.349   6.194   3.287 -0.1808  0.4916  0.1973
 4447SOL    HW115335   1.381   6.167   3.373 -0.3409 -0.1022  0.0782
 4447SOL    HW215336   1.428   6.211   3.236 -0.0245 -0.9247 -0.0852
 4448SOL     OW15337   6.754   5.919   5.058 -0.1982 -0.1422  0.1687
 4448SOL    HW115338   6.684   5.905   5.123  0.3185  2.1691  1.3298
 4448SOL    HW215339   6.727   5.866   4.983 -3.6530  1.2500  0.2267
 4449SOL     OW15340   1.106   0.618   3.496 -0.7053  0.3845 -0.3875
 4449SOL    HW115341   1.091   0.608   3.402 -0.8446  0.0157 -0.3274
 4449SOL    HW215342   1.019   0.610   3.536 -0.5813 -0.0116 -0.1844
 4450SOL     OW15343   8.734   6.529   8.619 -0.0398 -0.1705 -0.4790
 4450SOL    HW115344   8.726   6.572   8.705  0.1151  1.8442 -1.4189
 4450SOL    HW215345   8.816   6.563   8.583 -0.2323 -0.7886 -1.5246
 4451SOL     OW15346   5.669   5.878   3.708  0.0246  0.4312  0.1920
 4451SOL    HW115347   5.759   5.852   3.686  0.5613  1.0383  1.5731
 4451SOL    HW215348   5.615   5.807   3.675  1.2623 -1.4189  1.9297
 4452SOL     OW15349   2.734   7.539   8.869 -0.0555 -0.0214  0.9757
 4452SOL    HW115350   2.771   7.574   8.788 -2.1867 -0.8094 -0.4377
 4452SOL    HW215351   2.788   7.463   8.890  0.3322 -0.0082  0.0683
 4453SOL     OW15352   8.163   5.278   0.903 -0.4609 -0.1608  0.7241
 4453SOL    HW115353   8.234   5.221   0.875 -2.0225 -0.9035 -2.2339
 4453SOL    HW215354   8.090   5.219   0.922 -1.3309  0.6851  0.1369
 4454SOL     OW15355   5.551   4.539   1.694  0.3698  0.7499 -0.5229
 4454SOL    HW115356   5.631   4.581   1.664  0.9643  0.3219  0.4386
 4454SOL    HW215357   5.515   4.497   1.615  2.5683 -1.4762 -0.4366
 4455SOL     OW15358   8.532   8.839   4.319 -0.0256  0.1584  0.3165
 4455SOL    HW115359   8.553   8.775   4.387 -2.2746 -0.3247  0.6208
 4455SOL    HW215360   8.518   8.921   4.366  1.2492  0.5437  0.0842
 4456SOL     OW15361   3.033   3.231   3.314 -0.2838  0.1106  0.5018
 4456SOL    HW115362   3.070   3.144   3.295 -1.6601 -0.1542 -1.1768
 4456SOL    HW215363   3.054   3.283   3.237  0.0471  1.1387  1.2632
 4457SOL     OW15364   8.726   5.184   1.412  0.1378  0.5348  0.0679
 4457SOL    HW115365   8.660   5.251   1.428 -0.2522 -0.4476  3.2801
 4457SOL    HW215366   8.807   5.233   1.400 -0.3549  1.6350  0.9949
 4458SOL     OW15367   7.537   7.048   8.488  0.6224 -0.0072  0.1173
 4458SOL    HW115368   7.612   7.005   8.529  0.4151 -1.6313 -1.1306
 4458SOL    HW215369   7.466   7.037   8.552  0.2308 -2.7502 -0.6583
 4459SOL     OW15370   6.712   2.486   1.886 -0.3246 -0.5659 -0.0471
 4459SOL    HW115371   6.662   2.499   1.967 -1.3925 -0.9442 -0.6173
 4459SOL    HW215372   6.729   2.392   1.884  2.3546 -0.1806  1.2156
 4460SOL     OW15373   2.315   7.344   7.756  0.2995  0.2304  0.2806
 4460SOL    HW115374   2.395   7.356   7.807  1.7196  1.4603 -2.0298
 4460SOL    HW215375   2.253   7.406   7.794  1.3382  1.1798  0.5047
 4461SOL     OW15376   3.682   7.041   7.494  0.9617  0.1248  0.6831
 4461SOL    HW115377   3.619   7.112   7.487 -1.7085 -2.1957 -1.1787
 4461SOL    HW215378   3.658   6.996   7.575  0.6472 -0.3453  0.3368
 4462SOL     OW15379   0.680   0.450   3.985  0.3490  0.0129 -0.5609
 4462SOL    HW115380   0.708   0.430   3.895  1.0096  1.7767 -0.8074
 4462SOL    HW215381   0.655   0.543   3.981  0.0474  0.0206  1.0071
 4463SOL     OW15382   7.520   0.379   2.477 -0.4932 -0.6706 -0.1184
 4463SOL    HW115383   7.546   0.458   2.430 -1.3975 -0.6974 -0.6903
 4463SOL    HW215384   7.432   0.399   2.510  0.5435 -0.1969  2.5953
 4464SOL     OW15385   8.700   2.367   3.432  0.5552 -0.2026  0.4272
 4464SOL    HW115386   8.791   2.335   3.432  0.2120 -1.2127  0.1883
 4464SOL    HW215387   8.649   2.293   3.466 -0.3838 -0.2441 -1.0194
 4465SOL     OW15388   1.628   3.750   0.882 -0.3023 -0.0793 -0.0994
 4465SOL    HW115389   1.666   3.725   0.798 -0.5621  1.2178 -0.6326
 4465SOL    HW215390   1.669   3.692   0.946  0.0394 -0.9534 -1.0947
 4466SOL     OW15391   4.533   6.791   0.817 -0.1616 -0.3537 -0.4571
 4466SOL    HW115392   4.592   6.716   0.823  0.5191  0.2405  0.5403
 4466SOL    HW215393   4.473   6.780   0.891  0.0863  0.2037 -0.1690
 4467SOL     OW15394   7.148   3.235   7.950  0.1135 -0.3964 -0.2004
 4467SOL    HW115395   7.130   3.296   7.879 -2.2618  0.9822  1.4587
 4467SOL    HW215396   7.071   3.240   8.006  1.8395 -1.4433  2.4460
 4468SOL     OW15397   6.466   4.009   4.924  0.2312 -0.1796  0.2244
 4468SOL    HW115398   6.377   4.035   4.900  0.5455  1.4325  0.7015
 4468SOL    HW215399   6.465   4.005   5.019  0.6265 -0.3691  0.2214
 4469SOL     OW15400   6.810   0.833   8.859  0.7988  0.6342 -0.4040
 4469SOL    HW115401   6.877   0.768   8.835 -0.4636 -0.9544  0.2193
 4469SOL    HW215402   6.856   0.892   8.919  1.4190 -1.0310  0.8471
 4470SOL     OW15403   5.626   8.631   7.268  0.5829  0.6535 -0.1326
 4470SOL    HW115404   5.542   8.674   7.251 -0.9417 -1.9046  0.2764
 4470SOL    HW215405   5.610   8.579   7.347  2.8795  0.8001  0.4948
 4471SOL     OW15406   7.103   7.091   8.427  0.1778 -0.1591 -0.0723
 4471SOL    HW115407   7.144   7.161   8.375  0.7242 -0.2389  0.2445
 4471SOL    HW215408   7.108   7.122   8.517 -1.4120  0.3021 -0.1129
 4472SOL     OW15409   1.276   6.046   8.854 -0.5082 -0.0320 -0.6683
 4472SOL    HW115410   1.362   6.085   8.870 -0.4807 -0.5009  0.4229
 4472SOL    HW215411   1.221   6.119   8.828 -0.7172  0.9881  2.2951
 4473SOL     OW15412   0.803   7.247   4.182 -0.2461  0.9410  0.4335
 4473SOL    HW115413   0.734   7.312   4.195  1.3056  3.1939 -1.5860
 4473SOL    HW215414   0.851   7.247   4.265 -2.2249 -0.1995  1.6369
 4474SOL     OW15415   8.521   6.174   5.582  0.1637 -0.2410 -0.1586
 4474SOL    HW115416   8.571   6.127   5.516  0.3828 -0.4940  0.1866
 4474SOL    HW215417   8.549   6.137   5.666 -0.0543  0.1289  0.0850
 4475SOL     OW15418   0.751   6.672   5.137 -0.1554 -0.1090 -0.3549
 4475SOL    HW115419   0.845   6.673   5.121  0.0059 -0.9779  0.4479
 4475SOL    HW215420   0.717   6.607   5.074 -0.0758 -0.5393  0.0428
 4476SOL     OW15421   0.967   7.705   8.125  0.1482 -0.1997  0.1169
 4476SOL    HW115422   0.975   7.654   8.044  0.0099  0.8140 -0.5505
 4476SOL    HW215423   0.907   7.653   8.179 -0.3724 -0.5256 -0.7345
 4477SOL     OW15424   2.116   4.080   4.522 -0.2670 -0.5513 -0.3995
 4477SOL    HW115425   2.131   3.989   4.495 -0.3121 -0.3955 -0.9465
 4477SOL    HW215426   2.021   4.085   4.536 -0.6148  0.0322 -2.6814
 4478SOL     OW15427   6.070   6.844   2.563  0.1414 -0.4928 -0.3652
 4478SOL    HW115428   6.058   6.938   2.550 -1.2322 -0.6736 -0.5941
 4478SOL    HW215429   6.035   6.805   2.483  1.2788 -1.1734 -0.5407
 4479SOL     OW15430   4.906   4.381   1.559 -0.0439 -0.2741 -0.7288
 4479SOL    HW115431   4.824   4.336   1.543 -0.4032  0.8326 -2.2361
 4479SOL    HW215432   4.952   4.378   1.475  1.4233 -0.7669  0.0506
 4480SOL     OW15433   3.634   5.537   7.263  0.3006  0.2280 -0.1419
 4480SOL    HW115434   3.598   5.613   7.307 -0.9557 -0.4577  0.0759
 4480SOL    HW215435   3.566   5.511   7.200  1.3219  0.1538 -1.2530
 4481SOL     OW15436   6.737   0.517   5.977 -0.2674 -0.5509 -0.1163
 4481SOL    HW115437   6.745   0.517   5.882 -2.0582  1.1867 -0.3321
 4481SOL    HW215438   6.799   0.583   6.007 -0.2221 -0.5808 -0.1443
 4482SOL     OW15439   0.029   7.383   2.175  0.0366 -0.2055 -0.3766
 4482SOL    HW115440  -0.063   7.358   2.177 -0.0918  0.2610  1.0371
 4482SOL    HW215441   0.077   7.301   2.164 -0.5560 -0.3160 -2.5837
 4483SOL     OW15442   5.649   0.356   0.001 -0.4281  0.0987  0.0702
 4483SOL    HW115443   5.620   0.376  -0.088  0.1558  0.4965 -0.0347
 4483SOL    HW215444   5.570   0.361   0.054 -1.1518 -2.0227 -0.7136
 4484SOL     OW15445   7.520   7.133   3.508  0.4150  0.4731  0.2909
 4484SOL    HW115446   7.595   7.075   3.513  1.1108  1.1241 -1.7507
 4484SOL    HW215447   7.485   7.135   3.598  1.5676 -1.4478  0.8370
 4485SOL     OW15448   4.902   4.841   1.962 -0.0048  0.5138  0.2489
 4485SOL    HW115449   4.956   4.845   2.041  1.7869 -3.5788 -0.4975
 4485SOL    HW215450   4.830   4.782   1.984 -0.6858  1.0011 -0.5834
 4486SOL     OW15451   7.791   8.548   2.974 -0.2235 -0.4702  0.5030
 4486SOL    HW115452   7.857   8.487   3.007 -0.5993 -0.8917  0.4821
 4486SOL    HW215453   7.731   8.494   2.923 -0.2830  0.0005  0.0673
 4487SOL     OW15454   1.560   3.692   5.441 -0.1194  0.4027  0.1566
 4487SOL    HW115455   1.598   3.766   5.488  0.3973  0.2452 -0.0083
 4487SOL    HW215456   1.530   3.730   5.358 -1.5061  0.7894  0.7939
 4488SOL     OW15457   6.029   6.601   5.706 -0.8080  0.2045  0.6054
 4488SOL    HW115458   5.965   6.642   5.763 -1.7842 -1.1565  0.5373
 4488SOL    HW215459   6.092   6.560   5.766 -1.4859 -0.6965  0.7161
 4489SOL     OW15460   2.540   7.249   7.882 -0.0888 -0.2981 -0.1858
 4489SOL    HW115461   2.556   7.341   7.861 -1.5850  0.2966  1.0415
 4489SOL    HW215462   2.575   7.238   7.970 -3.3579  0.2359  1.3088
 4490SOL     OW15463   3.163   6.268   8.570 -0.6706  0.3083 -0.6997
 4490SOL    HW115464   3.133   6.308   8.488  0.4440  0.1736 -1.1835
 4490SOL    HW215465   3.231   6.207   8.544 -0.3878  0.1656  0.3255
 4491SOL     OW15466   8.618   2.748   0.055  0.2314  0.7331  0.0940
 4491SOL    HW115467   8.657   2.702   0.130 -0.4119 -0.1549 -0.1032
 4491SOL    HW215468   8.524   2.732   0.063  0.2450 -0.4218 -1.5688
 4492SOL     OW15469   8.233   8.081   7.526 -0.0352 -0.0103  0.3758
 4492SOL    HW115470   8.143   8.107   7.505  0.3157  0.2550 -0.8425
 4492SOL    HW215471   8.223   7.997   7.571 -0.9852  0.8340  1.8400
 4493SOL     OW15472   2.500   6.224   2.011  0.0196  0.6296 -0.2794
 4493SOL    HW115473   2.547   6.191   1.934  1.2770  1.1993  0.2220
 4493SOL    HW215474   2.424   6.167   2.018 -0.2202  0.6837 -2.0480
 4494SOL     OW15475   5.809   2.989   2.694  0.0821  0.0020 -0.6934
 4494SOL    HW115476   5.890   2.997   2.644  0.5299  0.9187  0.1398
 4494SOL    HW215477   5.822   2.912   2.749  0.5432  0.3438 -0.3122
 4495SOL     OW15478   1.733   7.078   2.342  0.2542 -0.2643  0.5824
 4495SOL    HW115479   1.775   7.162   2.360 -1.4577  1.1821 -1.5749
 4495SOL    HW215480   1.794   7.032   2.284  2.0615 -1.4331  3.2598
 4496SOL     OW15481   1.001   7.444   1.028 -0.6325  0.2490 -0.6675
 4496SOL    HW115482   0.916   7.462   0.988 -0.3873 -0.5328 -1.5793
 4496SOL    HW215483   1.065   7.470   0.961 -0.2148 -0.9206 -0.7439
 4497SOL     OW15484   1.684   0.273   1.391  0.0260 -0.6544  0.2229
 4497SOL    HW115485   1.635   0.353   1.375  1.0176  0.2357  1.4157
 4497SOL    HW215486   1.719   0.249   1.305 -2.1301 -1.1144 -0.5720
 4498SOL     OW15487   5.256   5.575   4.975 -0.1727 -0.1411 -0.2906
 4498SOL    HW115488   5.196   5.650   4.979 -0.5072 -0.4157 -0.1350
 4498SOL    HW215489   5.295   5.571   5.062 -1.3310 -1.1054  0.1973
 4499SOL     OW15490   4.810   8.160   8.647  0.3353  0.2688 -0.6030
 4499SOL    HW115491   4.739   8.106   8.682  0.9659 -0.4067 -0.3486
 4499SOL    HW215492   4.781   8.184   8.559 -0.1102 -0.1858 -0.5823
 4500SOL     OW15493   1.860   7.370   1.393  0.2758  0.6133  0.4622
 4500SOL    HW115494   1.835   7.453   1.434  1.6725  1.0075  0.5677
 4500SOL    HW215495   1.835   7.379   1.302  1.0571  1.4627  0.3104
 4501SOL     OW15496   6.048   3.537   3.705  0.6796 -0.8358 -0.3889
 4501SOL    HW115497   6.006   3.459   3.742 -0.2952 -0.4979 -0.7557
 4501SOL    HW215498   6.080   3.509   3.620 -1.1872 -0.4362 -1.2840
 4502SOL     OW15499   1.401   2.930   5.845 -0.5240 -0.0392 -0.4137
 4502SOL    HW115500   1.349   2.863   5.802 -0.3561 -0.1769 -0.4006
 4502SOL    HW215501   1.404   2.903   5.937 -1.9209  0.8969 -0.0642
 4503SOL     OW15502   1.236   5.512   2.659  0.1049 -0.1086  0.1635
 4503SOL    HW115503   1.267   5.580   2.599 -0.2999  0.3937  0.5201
 4503SOL    HW215504   1.220   5.558   2.741  0.2269 -0.7145  0.5289
 4504SOL     OW15505   0.509   8.453   5.941 -0.2978  0.3057  0.4418
 4504SOL    HW115506   0.514   8.378   5.882 -1.0310  1.1220 -0.7128
 4504SOL    HW215507   0.592   8.453   5.988 -0.5046 -1.5381  0.8886
 4505SOL     OW15508   5.070   5.938   7.813 -0.3775 -0.6179  0.2004
 4505SOL    HW115509   4.976   5.954   7.801 -0.5137 -1.6407 -0.2072
 4505SOL    HW215510   5.109   5.962   7.729 -0.2949 -0.3572  0.3129
 4506SOL     OW15511   8.609   0.939   4.190  0.1838  0.1930 -0.0807
 4506SOL    HW115512   8.567   1.010   4.141 -0.6829  0.2799  0.7627
 4506SOL    HW215513   8.578   0.950   4.280  0.1395 -1.1778  0.0966
 4507SOL     OW15514   2.643   6.006   6.761  0.2442  0.2669 -0.7850
 4507SOL    HW115515   2.583   6.075   6.734 -0.4182  0.1052  0.2291
 4507SOL    HW215516   2.599   5.925   6.736 -0.0006  0.1452  0.0183
 4508SOL     OW15517   2.514   3.511   2.106 -0.1064 -0.1869  0.1360
 4508SOL    HW115518   2.575   3.446   2.141  0.0988 -0.7066 -1.1366
 4508SOL    HW215519   2.428   3.482   2.136 -0.0501 -1.2458 -0.6753
 4509SOL     OW15520   1.699   0.422   0.013  0.3309  0.3308 -0.3638
 4509SOL    HW115521   1.702   0.485   0.085  1.7947  0.5454 -0.5690
 4509SOL    HW215522   1.790   0.418  -0.018 -0.1309 -0.3277 -1.7014
 4510SOL     OW15523   8.552   6.416   7.162  0.0127  0.2542 -0.0046
 4510SOL    HW115524   8.620   6.466   7.207 -1.1481  4.7344 -2.6927
 4510SOL    HW215525   8.600   6.350   7.111  1.7854 -0.1860  2.0642
 4511SOL     OW15526   7.816   2.850   8.290  0.3747  0.0767 -0.0838
 4511SOL    HW115527   7.909   2.835   8.269  0.2844  0.0936 -0.5061
 4511SOL    HW215528   7.815   2.936   8.331  0.5621  0.0223  0.0400
 4512SOL     OW15529   7.995   0.486   4.823  0.1378 -0.2421 -0.7164
 4512SOL    HW115530   8.016   0.504   4.915  1.3524 -0.1513 -0.9858
 4512SOL    HW215531   7.944   0.405   4.825 -0.1292 -0.0573  0.0621
 4513SOL     OW15532   7.062   3.615   7.089 -0.1681  0.0632 -0.2113
 4513SOL    HW115533   7.143   3.565   7.084  0.9997  1.9751 -1.5147
 4513SOL    HW215534   7.060   3.649   7.178  0.3251 -0.2155 -0.0897
 4514SOL     OW15535   3.408   6.474   2.361 -0.1480  0.2184 -0.4473
 4514SOL    HW115536   3.360   6.401   2.323  0.1792 -0.1980 -0.0757
 4514SOL    HW215537   3.348   6.548   2.355 -1.2556 -0.5095  0.9454
 4515SOL     OW15538   2.691   4.990   5.615  0.6508 -0.0328 -0.1944
 4515SOL    HW115539   2.695   5.054   5.544 -1.0551 -0.5191 -0.7797
 4515SOL    HW215540   2.708   4.905   5.572  0.0732 -0.2761  0.0477
 4516SOL     OW15541   8.316   5.997   2.261  0.3860 -0.0361 -0.0435
 4516SOL    HW115542   8.265   6.075   2.236 -0.8060 -0.4609  0.9653
 4516SOL    HW215543   8.351   5.965   2.178 -0.7477  0.4520 -0.7528
 4517SOL     OW15544   0.993   4.886   8.139  0.2206 -0.4612 -0.0440
 4517SOL    HW115545   0.962   4.946   8.071  0.9686  0.9229  0.7744
 4517SOL    HW215546   0.970   4.799   8.107 -2.1300  0.3097 -0.6641
 4518SOL     OW15547   8.321   5.557   2.063  0.3952  0.4616  0.2674
 4518SOL    HW115548   8.345   5.616   2.134 -1.3674  0.8758  0.5447
 4518SOL    HW215549   8.231   5.532   2.081  0.5579 -1.0001 -0.7631
 4519SOL     OW15550   4.589   0.840   8.432  0.2273  0.3817  0.2801
 4519SOL    HW115551   4.559   0.912   8.488 -0.4142  1.4553 -1.3622
 4519SOL    HW215552   4.684   0.842   8.439  0.3607  2.6712 -1.1597
 4520SOL     OW15553   2.989   0.993   3.477  0.1617  0.3455  0.5304
 4520SOL    HW115554   2.944   1.022   3.398 -0.3143 -0.7127  0.3931
 4520SOL    HW215555   3.033   0.911   3.451  1.2500  0.7691  0.9600
 4521SOL     OW15556   4.151   6.287   6.399 -0.4081 -0.3095  0.5875
 4521SOL    HW115557   4.165   6.312   6.491  1.3500 -2.3616  0.9645
 4521SOL    HW215558   4.205   6.348   6.349 -1.4656  0.8970  0.8392
 4522SOL     OW15559   0.829   2.788   2.813  0.3717 -0.5528  0.0682
 4522SOL    HW115560   0.823   2.884   2.806 -0.8872 -0.6484 -0.4536
 4522SOL    HW215561   0.769   2.756   2.746 -0.7226 -1.6840  1.5242
 4523SOL     OW15562   1.672   5.930   0.432  0.4799 -0.2082 -0.1140
 4523SOL    HW115563   1.749   5.984   0.413 -0.8110  1.2397 -1.5425
 4523SOL    HW215564   1.655   5.944   0.525  0.5671  1.3648 -0.3147
 4524SOL     OW15565   1.286   0.455   0.361 -0.3560 -0.1896 -0.5607
 4524SOL    HW115566   1.314   0.407   0.283  0.2830  0.4418 -0.7244
 4524SOL    HW215567   1.366   0.468   0.411 -0.8139 -0.8715  0.3721
 4525SOL     OW15568   8.531   3.049   8.440 -0.0384 -0.2789  0.1900
 4525SOL    HW115569   8.570   2.965   8.416  0.3618  0.3269 -1.3664
 4525SOL    HW215570   8.522   3.096   8.357 -2.3340  0.3492  0.7254
 4526SOL     OW15571   1.486   4.006   5.608 -0.5049  0.1135 -0.2000
 4526SOL    HW115572   1.416   3.942   5.598  1.0085 -1.5896 -0.3389
 4526SOL    HW215573   1.540   3.994   5.530  1.5775 -0.7283  1.3086
 4527SOL     OW15574   0.804   0.354   7.767 -0.0468 -0.7017 -0.6808
 4527SOL    HW115575   0.784   0.279   7.711 -0.0539 -0.5229 -0.9204
 4527SOL    HW215576   0.747   0.424   7.735 -1.2898 -1.0720  0.6430
 4528SOL     OW15577   5.246   2.000   1.399  0.0552 -0.0721 -0.5842
 4528SOL    HW115578   5.284   1.937   1.460 -1.5594 -2.2280 -1.6679
 4528SOL    HW215579   5.160   1.965   1.378 -0.0337  1.3366 -2.9908
 4529SOL     OW15580   0.355   7.716   5.401  0.3365  0.2690  0.3278
 4529SOL    HW115581   0.372   7.717   5.306  0.2938  0.8933  0.3188
 4529SOL    HW215582   0.390   7.632   5.431 -0.7810 -0.5039 -0.4451
 4530SOL     OW15583   8.782   7.498   7.708 -0.0467 -0.2526 -0.2180
 4530SOL    HW115584   8.756   7.589   7.720  1.1870  0.1964 -0.7862
 4530SOL    HW215585   8.816   7.472   7.794 -1.6548 -0.6415  0.3414
 4531SOL     OW15586   0.673   6.002   5.845  0.7823  0.8136 -0.4217
 4531SOL    HW115587   0.728   6.047   5.781  1.2498 -0.6141 -1.0607
 4531SOL    HW215588   0.707   5.913   5.848  1.7157  1.1285  2.8661
 4532SOL     OW15589   8.023   1.455   7.540  0.1767  0.2049  0.3922
 4532SOL    HW115590   7.942   1.453   7.591 -0.8966  0.2267 -1.2259
 4532SOL    HW215591   7.996   1.489   7.454  1.7960 -0.3336 -0.3678
 4533SOL     OW15592   4.569   8.648   6.056  0.5792 -0.2212 -0.8617
 4533SOL    HW115593   4.660   8.671   6.039  0.1202  2.5674 -0.1545
 4533SOL    HW215594   4.569   8.615   6.146  0.8681  0.0040 -0.7788
 4534SOL     OW15595   8.234   8.374   6.354  0.3008 -0.1541  0.0809
 4534SOL    HW115596   8.174   8.325   6.409 -0.5745 -0.6041 -1.2487
 4534SOL    HW215597   8.190   8.383   6.270  0.4285  2.8518  0.1997
 4535SOL     OW15598   3.743   5.894   6.568 -0.6309 -0.1725  0.7421
 4535SOL    HW115599   3.655   5.923   6.545 -0.3447  0.1716  0.0441
 4535SOL    HW215600   3.744   5.801   6.547 -0.3847  0.1249 -0.6901
 4536SOL     OW15601   1.004   1.393   7.737  0.1099 -0.5385 -0.7476
 4536SOL    HW115602   0.959   1.455   7.795  0.5606  1.5366 -2.4852
 4536SOL    HW215603   1.089   1.379   7.779 -0.6096 -1.3477  0.5120
 4537SOL     OW15604   2.138   3.245   0.926 -0.0163 -0.0937  0.3554
 4537SOL    HW115605   2.143   3.250   0.830 -0.0604  0.9064  0.3973
 4537SOL    HW215606   2.227   3.226   0.954  0.1209  0.2195  0.1420
 4538SOL     OW15607   5.517   7.748   7.983 -0.3876 -0.0313 -0.2806
 4538SOL    HW115608   5.587   7.716   7.928 -0.6620 -1.1840  0.0216
 4538SOL    HW215609   5.503   7.838   7.954  1.1191  0.1784 -0.4250
 4539SOL     OW15610   8.267   3.844   5.662 -0.0598  0.0551  0.0028
 4539SOL    HW115611   8.225   3.835   5.576  0.2695 -0.4348 -0.1035
 4539SOL    HW215612   8.196   3.826   5.724 -0.7390  2.0019 -0.1064
 4540SOL     OW15613   6.599   6.559   3.215 -0.0009  0.6421  0.0148
 4540SOL    HW115614   6.628   6.579   3.126  0.4369  2.1425  0.4587
 4540SOL    HW215615   6.602   6.643   3.261 -0.9223  0.0414  1.2611
 4541SOL     OW15616   3.860   7.758   6.771  0.3551  0.5436 -0.2552
 4541SOL    HW115617   3.860   7.806   6.689  2.3613  2.0184  0.5220
 4541SOL    HW215618   3.889   7.822   6.836 -1.2495 -0.5487  1.6470
 4542SOL     OW15619   2.474   4.401   2.200 -0.2582  0.3588 -0.0888
 4542SOL    HW115620   2.424   4.461   2.145 -1.1037 -0.3574 -0.1175
 4542SOL    HW215621   2.418   4.324   2.209  0.9557 -0.5819 -0.3572
 4543SOL     OW15622   1.475   3.365   6.168 -0.7229 -0.3754  0.0464
 4543SOL    HW115623   1.407   3.430   6.186 -1.2613 -1.3960  1.9791
 4543SOL    HW215624   1.549   3.392   6.221 -0.0466 -0.0125 -1.0364
 4544SOL     OW15625   3.397   0.466   2.812  0.8355 -0.0357  0.1609
 4544SOL    HW115626   3.490   0.459   2.830  1.6694 -1.7563 -3.6935
 4544SOL    HW215627   3.388   0.545   2.758 -0.3436  1.1940  2.0419
 4545SOL     OW15628   1.708   7.905   0.001 -0.2903  0.2088  0.5153
 4545SOL    HW115629   1.782   7.965  -0.007 -0.1824  0.1067  0.7249
 4545SOL    HW215630   1.684   7.885  -0.089  1.2931 -1.4021  0.3762
 4546SOL     OW15631   8.561   1.633   2.631 -0.3754  0.2752  0.1895
 4546SOL    HW115632   8.515   1.570   2.576  2.1807 -1.7127  0.1323
 4546SOL    HW215633   8.616   1.683   2.571 -0.7341  1.0213  0.4776
 4547SOL     OW15634   7.065   4.025   4.564 -0.1533  0.0655  0.0964
 4547SOL    HW115635   7.026   4.105   4.528  3.9619  1.1595 -2.6011
 4547SOL    HW215636   7.023   3.954   4.516  0.3910  1.1170 -2.0753
 4548SOL     OW15637   4.002   6.571   0.779  0.1013  0.4372  0.1313
 4548SOL    HW115638   3.967   6.639   0.837 -0.0140  0.3084  0.2142
 4548SOL    HW215639   3.927   6.543   0.727  0.1685  0.4366  0.0355
 4549SOL     OW15640   4.807   3.676   2.041 -0.8427 -0.4280  0.0245
 4549SOL    HW115641   4.872   3.613   2.075  0.0940  0.0268 -0.8796
 4549SOL    HW215642   4.826   3.681   1.947 -0.9070  1.2074  0.0830
 4550SOL     OW15643   6.481   0.672   3.274 -0.1658  0.2483 -0.8669
 4550SOL    HW115644   6.475   0.586   3.315  1.7833  0.9985  1.2508
 4550SOL    HW215645   6.440   0.731   3.337  0.1953  1.1013 -1.4107
 4551SOL     OW15646   0.375   1.212   6.434  0.1374  0.1590 -0.0149
 4551SOL    HW115647   0.355   1.214   6.528 -0.8151 -2.3832 -0.0662
 4551SOL    HW215648   0.289   1.213   6.392  0.4615 -0.7449 -0.7355
 4552SOL     OW15649   2.314   0.701   6.064 -0.3320  0.0208  0.9693
 4552SOL    HW115650   2.331   0.726   5.973  0.7608 -1.1147  0.8385
 4552SOL    HW215651   2.360   0.768   6.116  0.8197 -0.5098  0.6502
 4553SOL     OW15652   8.053   4.633   0.570  0.0102  0.1990  0.6543
 4553SOL    HW115653   7.991   4.624   0.642 -0.0963 -3.6823  0.2772
 4553SOL    HW215654   7.998   4.649   0.493 -0.2183  0.2160  0.8191
 4554SOL     OW15655   7.500   3.884   7.276 -0.5388 -0.2778 -0.2384
 4554SOL    HW115656   7.558   3.935   7.220 -0.2365 -1.5394 -1.1147
 4554SOL    HW215657   7.412   3.910   7.250 -0.3891  0.2545 -0.2254
 4555SOL     OW15658   0.383   8.277   3.723  0.2485 -0.4694  0.0134
 4555SOL    HW115659   0.414   8.221   3.651  0.4908  1.2262 -1.2687
 4555SOL    HW215660   0.348   8.354   3.679  1.3727  1.1158  1.7666
 4556SOL     OW15661   5.835   8.093   1.198  0.4858 -0.2563  0.4411
 4556SOL    HW115662   5.852   8.145   1.276  0.2869  0.8675 -0.2418
 4556SOL    HW215663   5.901   8.122   1.135  0.1586 -0.5873 -0.0609
 4557SOL     OW15664   0.408   5.655   1.171  0.2505 -0.0266 -0.0902
 4557SOL    HW115665   0.361   5.706   1.106  0.0169 -0.6358 -0.4096
 4557SOL    HW215666   0.344   5.589   1.200  0.2533  0.4299  0.9783
 4558SOL     OW15667   0.455   5.921   4.018  0.2623 -0.8298 -0.0663
 4558SOL    HW115668   0.368   5.918   3.979 -0.7991 -0.0713  2.0516
 4558SOL    HW215669   0.453   5.997   4.076  1.9493 -1.4524  0.9024
 4559SOL     OW15670   6.422   0.695   3.703  0.0186 -0.2149  0.2228
 4559SOL    HW115671   6.349   0.652   3.747  0.4230 -1.9537 -0.7224
 4559SOL    HW215672   6.492   0.697   3.769 -0.4560  0.3368  0.7284
 4560SOL     OW15673   3.031   4.643   4.154  0.3067 -0.1917 -0.1493
 4560SOL    HW115674   3.077   4.582   4.211  0.9463 -0.0302 -0.4774
 4560SOL    HW215675   3.049   4.729   4.191 -0.0255 -0.1532 -0.0779
 4561SOL     OW15676   6.063   5.917   7.259 -0.0672 -0.1611  0.3039
 4561SOL    HW115677   6.147   5.931   7.304  0.8274  0.0550 -1.3410
 4561SOL    HW215678   6.021   5.847   7.309  1.3047 -0.5958  0.9192
 4562SOL     OW15679   5.173   8.331   2.987 -0.7908 -0.0153 -0.9160
 4562SOL    HW115680   5.254   8.357   3.029 -1.6598 -0.8277  1.4384
 4562SOL    HW215681   5.201   8.280   2.910  1.0566 -2.4946  1.2016
 4563SOL     OW15682   1.973   8.660   5.039 -0.5710 -0.1563  0.3012
 4563SOL    HW115683   2.064   8.634   5.052 -0.3114  0.1043 -0.8593
 4563SOL    HW215684   1.923   8.580   5.053 -0.0544 -0.5713 -0.1312
 4564SOL     OW15685   3.090   1.058   0.095  0.1038 -0.7474 -0.1877
 4564SOL    HW115686   3.081   1.072   0.001 -0.0801  0.7307  0.0203
 4564SOL    HW215687   3.180   1.084   0.116  0.1868 -1.1968  0.0226
 4565SOL     OW15688   1.518   4.818   0.848  0.3997 -0.0828  0.1125
 4565SOL    HW115689   1.427   4.845   0.857  0.6994  0.4042  2.1846
 4565SOL    HW215690   1.521   4.729   0.885  0.6901 -0.2528 -0.3156
 4566SOL     OW15691   8.238   2.321   7.280  0.0073  0.2486  0.3339
 4566SOL    HW115692   8.216   2.326   7.373  0.6100  1.5762  0.4245
 4566SOL    HW215693   8.167   2.365   7.235  0.4966  1.0373  0.3105
 4567SOL     OW15694   7.055   6.131   0.666 -0.7099  0.2235 -0.4709
 4567SOL    HW115695   7.015   6.193   0.727 -1.6254 -1.0551  0.2843
 4567SOL    HW215696   7.126   6.090   0.716 -0.1967  0.5449 -0.9202
 4568SOL     OW15697   5.572   1.298   0.369 -0.0418  0.1342 -0.0097
 4568SOL    HW115698   5.611   1.384   0.357  0.7825 -0.0097  1.4572
 4568SOL    HW215699   5.519   1.306   0.448 -1.5656 -0.1859 -0.9531
 4569SOL     OW15700   4.625   5.923   1.709  0.4482  0.7561  0.3136
 4569SOL    HW115701   4.539   5.946   1.673  0.4524 -0.3129 -0.4254
 4569SOL    HW215702   4.685   5.982   1.664  0.1329  1.3881  0.7037
 4570SOL     OW15703   6.322   2.463   7.016  0.3270  0.6415  0.1099
 4570SOL    HW115704   6.262   2.464   7.091 -0.1327 -0.5795 -0.2112
 4570SOL    HW215705   6.357   2.373   7.016 -0.2477  0.3843 -1.5698
 4571SOL     OW15706   8.697   6.456   5.252  0.4063 -0.0592  0.1656
 4571SOL    HW115707   8.748   6.492   5.325 -1.1839  1.8816  0.4309
 4571SOL    HW215708   8.729   6.503   5.175 -0.1087  0.2543  0.1395
 4572SOL     OW15709   7.921   8.022   5.022  0.6360 -0.1042  0.4349
 4572SOL    HW115710   7.966   8.018   5.106  1.2358  0.2853  0.1376
 4572SOL    HW215711   7.829   8.010   5.044  0.8351 -0.4491  1.0991
 4573SOL     OW15712   7.061   3.135   3.249  0.6026 -0.1219  0.5664
 4573SOL    HW115713   7.055   3.196   3.175  0.1961 -1.4989 -0.5789
 4573SOL    HW215714   7.144   3.089   3.236 -0.6093 -2.1435 -0.5211
 4574SOL     OW15715   4.529   3.546   7.674  0.2014  0.2551 -0.4916
 4574SOL    HW115716   4.474   3.624   7.672 -0.0954  0.0394 -0.7692
 4574SOL    HW215717   4.476   3.478   7.632  0.5884 -0.0117 -0.5516
 4575SOL     OW15718   2.756   0.386   4.043 -0.2304  0.1620 -0.4151
 4575SOL    HW115719   2.691   0.355   4.105 -0.8712  0.7366 -0.7842
 4575SOL    HW215720   2.743   0.332   3.965  0.5517 -0.5369 -0.0809
 4576SOL     OW15721   4.044   3.188   3.576 -0.4639 -0.1298  0.0525
 4576SOL    HW115722   4.134   3.156   3.576 -0.4801 -0.1789 -0.4243
 4576SOL    HW215723   3.993   3.116   3.539 -0.2236  1.1779 -3.1498
 4577SOL     OW15724   6.131   0.979   1.370 -0.1446 -0.1441 -0.5995
 4577SOL    HW115725   6.204   1.016   1.421 -1.1459 -0.1153  0.8732
 4577SOL    HW215726   6.123   1.037   1.295  0.0596  1.0779  0.2851
 4578SOL     OW15727   8.479   2.948   2.871 -0.4950  0.4446  0.3456
 4578SOL    HW115728   8.519   2.929   2.787 -1.9505  1.7976 -0.7224
 4578SOL    HW215729   8.489   2.868   2.922 -0.5810 -0.8115 -1.5272
 4579SOL     OW15730   3.047   4.602   3.592  0.4447 -0.9924 -0.6425
 4579SOL    HW115731   3.089   4.644   3.518  1.4534 -3.0446 -1.3249
 4579SOL    HW215732   3.105   4.619   3.666 -0.4465  0.8635 -0.3311
 4580SOL     OW15733   7.540   5.111   5.717 -0.2765 -1.0601  0.3461
 4580SOL    HW115734   7.561   5.040   5.656  1.0812  0.5600 -1.1718
 4580SOL    HW215735   7.515   5.184   5.661 -0.4863  0.0295  1.8184
 4581SOL     OW15736   8.388   0.085   0.119  0.5437  0.7069  0.2991
 4581SOL    HW115737   8.337   0.123   0.190  0.4203  0.4263  0.3596
 4581SOL    HW215738   8.475   0.126   0.128  0.7155  0.2092  0.9882
 4582SOL     OW15739   1.561   3.172   2.386 -0.4183  0.4896  0.2047
 4582SOL    HW115740   1.579   3.217   2.303  0.2281  1.3796  0.8061
 4582SOL    HW215741   1.588   3.082   2.370 -1.4608  0.3568 -0.9344
 4583SOL     OW15742   0.334   0.920   3.372  0.1852 -0.6016  0.2970
 4583SOL    HW115743   0.251   0.919   3.326  0.9090 -0.6941 -1.0444
 4583SOL    HW215744   0.400   0.899   3.306  1.4780  1.2122  0.8856
 4584SOL     OW15745   6.172   3.794   7.704 -0.0536  0.3000 -0.5823
 4584SOL    HW115746   6.188   3.858   7.773 -1.7349  1.6713 -1.3957
 4584SOL    HW215747   6.169   3.845   7.623  2.2807 -1.3082 -1.8329
 4585SOL     OW15748   5.954   7.559   6.667 -0.4809 -0.2280  0.0236
 4585SOL    HW115749   5.864   7.529   6.651  0.0509 -1.9227  0.0494
 4585SOL    HW215750   5.962   7.556   6.763 -0.3344 -0.2708  0.0089
 4586SOL     OW15751   4.449   2.970   5.720 -0.6997  0.1868 -0.0451
 4586SOL    HW115752   4.361   2.966   5.757 -0.0424 -2.3829  1.5288
 4586SOL    HW215753   4.501   3.016   5.785 -0.3092 -1.0254  0.5406
 4587SOL     OW15754   6.176   0.957   6.083  0.3502 -0.1250  0.3825
 4587SOL    HW115755   6.223   0.875   6.070  2.3687  1.1247 -0.8006
 4587SOL    HW215756   6.086   0.937   6.057  1.2169 -1.4901 -1.9681
 4588SOL     OW15757   0.304   0.848   0.231 -0.2322  0.6672  0.1632
 4588SOL    HW115758   0.387   0.833   0.276  0.3687  1.9168 -0.4809
 4588SOL    HW215759   0.320   0.923   0.174 -1.8536  1.0473  0.1343
 4589SOL     OW15760   7.278   6.413   0.913  0.0982 -0.5639  0.0226
 4589SOL    HW115761   7.258   6.320   0.922  0.4436 -0.7111 -0.6405
 4589SOL    HW215762   7.374   6.417   0.917  0.0807 -0.2210  0.1579
 4590SOL     OW15763   1.143   0.193   6.460  0.4655  0.1925  0.0819
 4590SOL    HW115764   1.238   0.200   6.451  0.9287 -4.8513 -2.1046
 4590SOL    HW215765   1.130   0.133   6.534 -0.8783 -0.6638 -0.8057
 4591SOL     OW15766   3.061   7.012   5.094  0.0285 -0.2553  0.3757
 4591SOL    HW115767   3.079   7.098   5.132 -2.1689 -0.4081  1.9008
 4591SOL    HW215768   3.056   7.028   5.000  1.7487  0.8517  0.4225
 4592SOL     OW15769   1.910   3.794   2.633 -0.6267  0.5353  0.1848
 4592SOL    HW115770   1.830   3.787   2.686  0.4913 -0.0833  1.9080
 4592SOL    HW215771   1.943   3.882   2.651  1.6536 -0.7976  3.6173
 4593SOL     OW15772   2.877   8.683   2.415  0.1931 -0.2612 -0.2341
 4593SOL    HW115773   2.887   8.766   2.369  1.3168 -0.4687 -0.3934
 4593SOL    HW215774   2.885   8.616   2.347  0.0293 -0.5131 -0.0059
 4594SOL     OW15775   5.064   2.478   4.124  0.2053  0.1150 -0.0955
 4594SOL    HW115776   5.133   2.442   4.068 -0.3850  0.6673 -1.2062
 4594SOL    HW215777   4.986   2.479   4.069 -0.5925 -0.0504  0.9881
 4595SOL     OW15778   1.001   3.263   6.263 -0.0796 -0.5003  0.0938
 4595SOL    HW115779   1.038   3.314   6.191 -0.5392 -0.3310 -0.0302
 4595SOL    HW215780   1.074   3.212   6.298  0.5758  0.8514  0.7529
 4596SOL     OW15781   4.477   6.970   0.571 -0.4436 -0.3032 -0.1104
 4596SOL    HW115782   4.555   6.973   0.516 -0.9810  0.5260 -0.8518
 4596SOL    HW215783   4.495   6.900   0.634  1.3458  0.6026  0.4368
 4597SOL     OW15784   6.558   7.118   7.797  0.1405  0.0593  0.3093
 4597SOL    HW115785   6.645   7.112   7.757  1.0119 -0.7424  2.1892
 4597SOL    HW215786   6.549   7.036   7.846 -1.5093  0.3206  0.4879
 4598SOL     OW15787   1.966   2.061   2.756  0.0147  0.5370 -0.5120
 4598SOL    HW115788   2.034   1.995   2.749 -2.1731 -1.9382  0.0543
 4598SOL    HW215789   1.985   2.123   2.685  2.9270  0.1502 -0.1987
 4599SOL     OW15790   6.659   7.801   3.265 -0.7604  0.6214  0.5863
 4599SOL    HW115791   6.591   7.759   3.318 -0.3506 -0.5246  0.2540
 4599SOL    HW215792   6.733   7.811   3.324 -0.2788 -0.7217  0.2511
 4600SOL     OW15793   6.504   5.316   7.455  0.1311  0.0321 -0.3702
 4600SOL    HW115794   6.590   5.331   7.495 -1.7329  3.9012  2.8714
 4600SOL    HW215795   6.519   5.328   7.361  3.2442 -0.7080 -0.0936
 4601SOL     OW15796   3.434   2.110   5.512 -0.0480  0.1577  0.0647
 4601SOL    HW115797   3.468   2.051   5.444  1.2645 -0.1023  0.9112
 4601SOL    HW215798   3.512   2.138   5.561 -1.0342 -0.3691  2.0214
 4602SOL     OW15799   0.876   5.070   1.791 -0.2398  0.3966 -0.2694
 4602SOL    HW115800   0.919   5.099   1.710 -0.9290  1.3627 -0.2974
 4602SOL    HW215801   0.850   4.979   1.772 -0.0597  0.4859 -0.9922
 4603SOL     OW15802   0.828   1.726   4.563 -0.0502  0.0734  0.4163
 4603SOL    HW115803   0.810   1.726   4.658  0.5723  0.7745  0.5384
 4603SOL    HW215804   0.779   1.801   4.530  0.8067  0.6309  0.3957
 4604SOL     OW15805   6.935   6.598   3.677  0.1835  0.5194 -0.7979
 4604SOL    HW115806   6.931   6.507   3.706 -1.3241  0.0992 -2.1956
 4604SOL    HW215807   7.029   6.619   3.676  0.5125 -0.7809  0.1425
 4605SOL     OW15808   4.334   7.976   4.665 -0.6301 -0.1491  0.3762
 4605SOL    HW115809   4.295   7.969   4.578  0.1014  0.7966 -0.0512
 4605SOL    HW215810   4.289   7.910   4.717 -0.6182 -1.1846 -0.8877
 4606SOL     OW15811   8.436   7.758   8.509 -0.2120  0.0800  0.4784
 4606SOL    HW115812   8.369   7.825   8.499 -1.1573 -0.6509  1.6337
 4606SOL    HW215813   8.394   7.677   8.480  1.3917  0.1303 -2.3832
 4607SOL     OW15814   6.563   0.481   7.234  0.5814 -0.3996  0.6577
 4607SOL    HW115815   6.531   0.410   7.179  1.5244 -2.1584  2.2378
 4607SOL    HW215816   6.551   0.449   7.324 -0.4304  2.1264  1.5202
 4608SOL     OW15817   7.870   3.365   3.851  0.1508 -0.1347 -0.3052
 4608SOL    HW115818   7.795   3.404   3.897 -2.1652 -1.3276 -2.7369
 4608SOL    HW215819   7.914   3.439   3.810  0.1386  0.5652  0.9006
 4609SOL     OW15820   6.307   4.180   2.855 -0.1509 -0.0782  0.3434
 4609SOL    HW115821   6.315   4.104   2.912 -0.4187  0.4480  1.0936
 4609SOL    HW215822   6.344   4.252   2.905  4.0166 -0.3739 -1.8677
 4610SOL     OW15823   8.378   8.415   7.049 -0.0247  0.6883 -0.0623
 4610SOL    HW115824   8.413   8.459   7.127  0.2420 -0.6256  0.6068
 4610SOL    HW215825   8.429   8.451   6.976  2.4173 -0.7246  0.8115
 4611SOL     OW15826   2.748   7.656   2.833 -0.0286  0.2899 -0.4680
 4611SOL    HW115827   2.751   7.695   2.920  0.0480 -0.9485  0.1105
 4611SOL    HW215828   2.827   7.688   2.790 -0.0819  0.9393 -0.0945
 4612SOL     OW15829   1.191   7.084   8.735  0.3111  0.3540 -0.1422
 4612SOL    HW115830   1.274   7.120   8.703  1.0450 -1.9365 -1.0037
 4612SOL    HW215831   1.215   7.003   8.779 -1.5607 -1.4860 -2.1889
 4613SOL     OW15832   5.849   5.834   1.110  0.5891 -0.1641 -0.4633
 4613SOL    HW115833   5.775   5.853   1.053  0.1038  1.6825  0.6815
 4613SOL    HW215834   5.926   5.853   1.057  0.1884  0.0115 -0.9868
 4614SOL     OW15835   4.545   7.954   7.361 -0.0269 -0.4592  0.0201
 4614SOL    HW115836   4.624   7.969   7.413  0.0570  2.2825 -0.7627
 4614SOL    HW215837   4.495   7.891   7.412  2.2596 -1.6728  0.9301
 4615SOL     OW15838   2.813   6.312   5.508 -0.2686 -0.1831  0.3047
 4615SOL    HW115839   2.809   6.323   5.603  0.6716 -0.7696  0.4223
 4615SOL    HW215840   2.802   6.218   5.495 -0.0232 -0.1526 -0.1420
 4616SOL     OW15841   1.740   2.512   7.930 -0.0597 -0.4699  0.5747
 4616SOL    HW115842   1.766   2.585   7.986 -1.3025 -0.7153  1.5116
 4616SOL    HW215843   1.801   2.442   7.952 -0.2319 -0.4034  1.2791
 4617SOL     OW15844   2.172   4.502   5.820  0.6761 -0.0565  0.0836
 4617SOL    HW115845   2.258   4.471   5.849  1.0895 -0.4375 -1.4787
 4617SOL    HW215846   2.120   4.423   5.806  0.8529  0.0408 -1.2597
 4618SOL     OW15847   5.653   5.169   8.377  0.1209  0.3087 -0.1090
 4618SOL    HW115848   5.701   5.092   8.346  0.7535  0.5811  0.1749
 4618SOL    HW215849   5.625   5.213   8.298  0.6246  0.3173 -0.2889
 4619SOL     OW15850   5.619   3.879   5.275  0.3336 -0.4265 -0.4726
 4619SOL    HW115851   5.659   3.830   5.203 -0.4798 -0.9631 -0.5702
 4619SOL    HW215852   5.577   3.812   5.329 -2.4292  0.2464 -1.6036
 4620SOL     OW15853   0.616   5.927   2.783 -0.2487  0.1677 -0.2424
 4620SOL    HW115854   0.625   5.834   2.804 -1.2404 -0.3927 -2.0621
 4620SOL    HW215855   0.524   5.947   2.801 -0.1229  0.7018 -0.1814
 4621SOL     OW15856   6.236   6.724   8.671 -0.6051  0.0363 -0.1183
 4621SOL    HW115857   6.159   6.711   8.726 -0.2104 -0.1937  0.3816
 4621SOL    HW215858   6.309   6.724   8.732  0.0154 -1.9491 -0.7857
 4622SOL     OW15859   2.750   4.069   5.182  0.3701 -0.3817 -0.2898
 4622SOL    HW115860   2.655   4.084   5.183  0.0219 -2.1408 -1.8123
 4622SOL    HW215861   2.779   4.096   5.269 -1.8667 -1.9217  1.0403
 4623SOL     OW15862   3.367   5.117   0.965  0.0021  0.1007 -0.3391
 4623SOL    HW115863   3.449   5.114   0.916  0.6049  1.0491  0.5622
 4623SOL    HW215864   3.305   5.065   0.913  1.5497 -1.9237 -0.2787
 4624SOL     OW15865   6.299   6.601   5.628  0.1824  0.0415 -0.5647
 4624SOL    HW115866   6.207   6.583   5.648  0.3125 -2.1483 -1.6752
 4624SOL    HW215867   6.311   6.569   5.539  2.1579 -0.2033 -0.2450
 4625SOL     OW15868   6.705   8.666   1.284 -0.6832 -0.1866 -0.0901
 4625SOL    HW115869   6.790   8.622   1.281 -0.9011 -0.6627  0.4759
 4625SOL    HW215870   6.680   8.664   1.376 -1.0675  0.4219 -0.1723
 4626SOL     OW15871   5.461   8.533   5.104 -0.8300  0.0737 -0.3221
 4626SOL    HW115872   5.373   8.569   5.092 -0.9122 -0.0110  0.0203
 4626SOL    HW215873   5.450   8.465   5.171 -1.1591 -2.3575 -2.6651
 4627SOL     OW15874   8.247   6.565   3.910  0.4649  0.2808 -0.4595
 4627SOL    HW115875   8.161   6.591   3.941  0.9416  0.9728  0.3151
 4627SOL    HW215876   8.307   6.590   3.980  0.9704 -3.0346  0.4769
 4628SOL     OW15877   6.941   8.831   8.083  0.2905 -0.5000 -0.8265
 4628SOL    HW115878   6.902   8.804   8.166 -2.0519  0.2733 -1.6076
 4628SOL    HW215879   7.032   8.801   8.089  0.1404 -0.6932  1.8858
 4629SOL     OW15880   3.086   4.346   5.461  0.7250 -0.1779 -0.0136
 4629SOL    HW115881   3.135   4.264   5.456 -2.0083 -1.9004 -0.6145
 4629SOL    HW215882   3.145   4.411   5.423  3.4910 -1.5346  1.6382
 4630SOL     OW15883   6.563   5.107   1.157  0.7145  0.0867 -0.2828
 4630SOL    HW115884   6.520   5.078   1.237 -0.8024  0.3311 -0.9835
 4630SOL    HW215885   6.616   5.032   1.130  1.0943 -0.0618  0.8339
 4631SOL     OW15886   0.996   7.538   0.518  0.0145 -0.0328 -0.6064
 4631SOL    HW115887   1.068   7.577   0.467  0.2956  1.6012  0.9264
 4631SOL    HW215888   0.945   7.613   0.547 -0.6515 -0.9820  0.7376
 4632SOL     OW15889   5.076   6.910   5.505 -0.3428  0.6067 -0.9072
 4632SOL    HW115890   5.056   6.821   5.475  2.5496 -1.1808  1.8144
 4632SOL    HW215891   4.995   6.942   5.544 -1.0918 -1.4084 -0.7121
 4633SOL     OW15892   7.856   8.851   3.975 -0.4752  0.2422 -0.1914
 4633SOL    HW115893   7.864   8.857   3.880 -0.1642  0.0634 -0.1794
 4633SOL    HW215894   7.795   8.779   3.990  0.3956 -0.5240 -0.2409
 4634SOL     OW15895   3.283   8.451   2.545  0.2265  0.4460  0.2073
 4634SOL    HW115896   3.285   8.364   2.584 -0.1055 -0.7113 -2.2065
 4634SOL    HW215897   3.203   8.492   2.581 -0.2766 -0.7039  0.4343
 4635SOL     OW15898   1.442   4.155   4.935 -0.4004 -0.3351  0.2358
 4635SOL    HW115899   1.478   4.168   5.022  1.2185  0.9439 -0.5850
 4635SOL    HW215900   1.352   4.126   4.951 -0.5632  1.1023  2.3064
 4636SOL     OW15901   4.453   4.699   6.102  0.0047  0.0875  0.2211
 4636SOL    HW115902   4.542   4.708   6.135  0.7872 -3.5371 -0.5029
 4636SOL    HW215903   4.463   4.660   6.015 -2.2758 -0.3420  0.0835
 4637SOL     OW15904   3.292   3.155   4.965 -0.1069 -0.1618  0.3508
 4637SOL    HW115905   3.266   3.073   5.008  2.5415 -1.2612  0.0476
 4637SOL    HW215906   3.343   3.201   5.031  0.0779  0.3287 -0.1292
 4638SOL     OW15907   0.875   5.548   0.083 -0.3079  0.1828  0.0130
 4638SOL    HW115908   0.808   5.550   0.152  0.4305  1.0968  0.7324
 4638SOL    HW215909   0.900   5.640   0.072 -1.6713  0.3306 -2.7726
 4639SOL     OW15910   8.531   6.927   6.915 -0.2846  0.0986 -0.7520
 4639SOL    HW115911   8.518   6.968   7.001 -0.6619 -1.9546  0.2270
 4639SOL    HW215912   8.531   7.000   6.853 -0.4651  1.5921  0.9386
 4640SOL     OW15913   1.375   8.370   0.804 -0.3203  0.2319 -0.4187
 4640SOL    HW115914   1.421   8.310   0.745 -0.9748 -0.5951 -0.1102
 4640SOL    HW215915   1.354   8.446   0.750  2.0629  0.9955 -0.3882
 4641SOL     OW15916   3.002   8.362   0.960  0.8853  0.2785  0.3645
 4641SOL    HW115917   2.944   8.436   0.944  2.1043  1.1408 -0.2282
 4641SOL    HW215918   2.963   8.290   0.910  0.9178  1.1461 -0.9538
 4642SOL     OW15919   5.587   5.704   7.976  0.2628 -0.6534  0.0416
 4642SOL    HW115920   5.682   5.704   7.978  0.4373 -0.8504 -3.0610
 4642SOL    HW215921   5.565   5.680   7.886 -2.7469 -1.5539  0.8892
 4643SOL     OW15922   2.153   0.611   1.736 -0.2452  0.3521  0.6000
 4643SOL    HW115923   2.209   0.660   1.796 -1.8300  0.0516  2.4076
 4643SOL    HW215924   2.067   0.652   1.743 -0.9866 -1.0554  0.1913
 4644SOL     OW15925   4.023   4.198   6.273 -0.6594 -0.4536  0.2331
 4644SOL    HW115926   4.017   4.160   6.361 -0.7522  0.2483  0.5345
 4644SOL    HW215927   4.047   4.124   6.217 -1.2900 -1.0541  0.7376
 4645SOL     OW15928   0.827   1.471   3.796 -0.0597 -0.1453 -0.1515
 4645SOL    HW115929   0.754   1.437   3.848  0.5026  0.6597  1.2144
 4645SOL    HW215930   0.883   1.516   3.860  2.8728 -2.6799 -0.6822
 4646SOL     OW15931   6.787   2.514   6.007 -0.4777 -0.2914 -0.2521
 4646SOL    HW115932   6.788   2.501   5.912 -0.8156  0.6582 -0.3992
 4646SOL    HW215933   6.878   2.499   6.033 -0.1982  0.2525 -0.8606
 4647SOL     OW15934   7.241   8.669   8.693  0.1261  0.2286 -0.2596
 4647SOL    HW115935   7.250   8.662   8.788 -1.7569  2.7347  0.1948
 4647SOL    HW215936   7.164   8.617   8.672 -1.8002  2.7123  0.2351
 4648SOL     OW15937   1.897   4.856   7.182 -0.0424 -0.1685 -0.2720
 4648SOL    HW115938   1.819   4.838   7.130  0.3743 -2.8151 -0.1234
 4648SOL    HW215939   1.869   4.842   7.272  0.1842  0.6055 -0.0778
 4649SOL     OW15940   5.856   2.117   3.748  0.0909 -0.0547  0.4082
 4649SOL    HW115941   5.890   2.175   3.817 -1.6645 -0.2010  1.4437
 4649SOL    HW215942   5.839   2.034   3.793  0.5123 -0.6893 -0.5853
 4650SOL     OW15943   8.345   1.128   6.528 -0.3926 -0.5677  0.4997
 4650SOL    HW115944   8.422   1.133   6.472  0.2182 -0.2218  1.3583
 4650SOL    HW215945   8.285   1.070   6.481  1.0552 -2.2177  0.6041
 4651SOL     OW15946   8.095   2.049   8.790  0.1405  0.0555  0.3676
 4651SOL    HW115947   8.059   1.967   8.758  0.2176 -0.8286  2.3777
 4651SOL    HW215948   8.020   2.099   8.821  0.2131  0.2397  0.2540
 4652SOL     OW15949   6.131   8.007   1.509  0.2814 -0.0991 -0.1235
 4652SOL    HW115950   6.138   8.050   1.594 -0.3087 -0.4489  0.1070
 4652SOL    HW215951   6.116   8.078   1.447  1.3147  0.2187 -0.0287
 4653SOL     OW15952   2.268   4.624   7.731  0.3413 -0.2598  0.1181
 4653SOL    HW115953   2.175   4.646   7.731 -0.0356 -1.6864  1.4380
 4653SOL    HW215954   2.303   4.671   7.655 -1.6028 -0.3138 -0.8930
 4654SOL     OW15955   6.806   7.950   7.406  0.1849  0.3540 -0.5435
 4654SOL    HW115956   6.789   8.040   7.378  0.3481  0.7447  0.5953
 4654SOL    HW215957   6.872   7.918   7.344  0.2226  1.0572 -0.8723
 4655SOL     OW15958   5.875   8.890   3.628  0.6780  0.1091 -0.2274
 4655SOL    HW115959   5.810   8.860   3.691 -0.0834  1.1094 -0.5011
 4655SOL    HW215960   5.894   8.813   3.574  0.4085 -0.4306  0.4359
 4656SOL     OW15961   0.989   3.608   4.588  0.4092  0.2181  0.8763
 4656SOL    HW115962   1.069   3.654   4.615  2.9389 -2.2026 -1.7309
 4656SOL    HW215963   0.972   3.547   4.660  2.8460 -1.3191  0.2786
 4657SOL     OW15964   1.236   5.666   8.694 -0.1500 -0.5047  0.1599
 4657SOL    HW115965   1.246   5.584   8.645 -0.4936 -0.3394 -0.1882
 4657SOL    HW215966   1.155   5.704   8.662  0.9842  0.9662 -1.1490
 4658SOL     OW15967   1.071   3.935   6.571 -0.1504  0.1789  0.2730
 4658SOL    HW115968   1.114   3.943   6.486 -0.6326  0.3483  0.0400
 4658SOL    HW215969   0.981   3.911   6.550 -0.3126  0.3769  0.7318
 4659SOL     OW15970   5.094   1.238   3.736  0.3745  0.2342 -0.2959
 4659SOL    HW115971   5.101   1.243   3.832 -0.1079  1.2477 -0.3031
 4659SOL    HW215972   5.183   1.249   3.704  0.6891 -1.0618  0.0493
 4660SOL     OW15973   8.265   2.318   6.924  0.1090 -0.7278 -0.0835
 4660SOL    HW115974   8.335   2.381   6.908  0.7630 -1.4873 -0.2378
 4660SOL    HW215975   8.224   2.305   6.839 -0.1970 -0.3232 -0.0029
 4661SOL     OW15976   2.765   2.219   3.201 -0.5207  0.3912 -0.4017
 4661SOL    HW115977   2.819   2.228   3.280 -0.1965  0.2010 -0.6002
 4661SOL    HW215978   2.751   2.124   3.192 -0.5956  0.4155 -0.5457
 4662SOL     OW15979   2.345   4.602   0.481 -0.6186 -0.3458 -0.0616
 4662SOL    HW115980   2.268   4.597   0.424 -1.1803  0.9082  0.5685
 4662SOL    HW215981   2.402   4.666   0.438 -1.6466  1.6544  1.4456
 4663SOL     OW15982   1.137   7.305   2.878  0.3008 -0.9252  0.5218
 4663SOL    HW115983   1.210   7.366   2.894  0.1847 -0.7888  0.5392
 4663SOL    HW215984   1.073   7.358   2.829 -0.3757 -0.6447  1.6702
 4664SOL     OW15985   8.881   1.999   1.041 -0.5522  0.2176 -0.0580
 4664SOL    HW115986   8.796   1.977   1.003 -0.4569  1.9107 -1.3862
 4664SOL    HW215987   8.865   2.003   1.135 -1.6578 -0.6308 -0.1914
 4665SOL     OW15988   6.468   0.887   1.306 -0.1403  0.1384 -0.0097
 4665SOL    HW115989   6.523   0.942   1.362 -1.8612  1.9523 -0.0252
 4665SOL    HW215990   6.513   0.887   1.221  1.8826 -1.7014  0.9526
 4666SOL     OW15991   7.964   7.041   6.108  0.8199  0.4964 -0.2157
 4666SOL    HW115992   8.020   7.057   6.184  1.6542 -0.3325 -0.6396
 4666SOL    HW215993   8.023   7.003   6.043  0.1059  1.1427 -1.2594
 4667SOL     OW15994   7.820   1.626   6.908  0.8554 -0.1188  0.2577
 4667SOL    HW115995   7.908   1.632   6.947  0.7418 -1.3454  0.7363
 4667SOL    HW215996   7.764   1.677   6.967  1.2586  0.8144 -0.1423
 4668SOL     OW15997   5.809   2.750   8.186 -0.8488 -0.0170  0.0349
 4668SOL    HW115998   5.773   2.835   8.164 -0.2131 -0.1744 -1.7342
 4668SOL    HW215999   5.733   2.698   8.213 -1.6482  0.3422 -1.4056
 4669SOL     OW16000   7.120   3.412   2.011  0.0117  0.7807  0.5462
 4669SOL    HW116001   7.060   3.470   2.059 -1.7185  1.4224 -2.1446
 4669SOL    HW216002   7.180   3.472   1.966 -0.3186  0.4232 -0.4148
 4670SOL     OW16003   2.848   7.410   3.663  0.1864  0.3698 -0.4888
 4670SOL    HW116004   2.807   7.417   3.749  1.0942 -0.2169  0.0102
 4670SOL    HW216005   2.783   7.366   3.608  0.7345 -2.1248  0.7260
 4671SOL     OW16006   5.903   3.648   1.574 -0.3544  0.1168  0.5753
 4671SOL    HW116007   5.982   3.686   1.534  0.6821 -1.4639  1.0279
 4671SOL    HW216008   5.871   3.716   1.633  1.2332  0.4472  1.1044
 4672SOL     OW16009   4.821   2.997   7.106  0.1551  0.1290 -0.1803
 4672SOL    HW116010   4.879   3.066   7.072 -1.2637  0.4178 -2.1995
 4672SOL    HW216011   4.737   3.013   7.064 -0.3907 -2.5115 -0.2828
 4673SOL     OW16012   8.002   2.508   8.192 -0.0240 -0.4438 -0.5621
 4673SOL    HW116013   8.035   2.442   8.131  1.8385 -0.3836  0.2980
 4673SOL    HW216014   8.069   2.577   8.191 -1.9388  1.5334 -1.4929
 4674SOL     OW16015   2.116   1.730   7.175  0.1973  0.5088  1.0110
 4674SOL    HW116016   2.146   1.792   7.241  0.8830  0.9972  0.2649
 4674SOL    HW216017   2.196   1.697   7.134 -0.0876 -1.9947  2.3475
 4675SOL     OW16018   2.771   1.269   8.320  0.4287  0.1098 -0.5621
 4675SOL    HW116019   2.814   1.354   8.321  0.0727  0.3112  0.9152
 4675SOL    HW216020   2.802   1.226   8.240  1.2389  1.3030 -0.9016
 4676SOL     OW16021   2.810   7.637   3.212 -0.4603 -0.1119  0.5363
 4676SOL    HW116022   2.817   7.543   3.193  0.4995  0.2300 -0.9714
 4676SOL    HW216023   2.816   7.642   3.307  1.4950 -1.4526  0.5506
 4677SOL     OW16024   1.644   4.007   1.012 -0.6544  0.5186 -0.6688
 4677SOL    HW116025   1.628   4.101   1.000 -0.8457  0.2772 -2.4707
 4677SOL    HW216026   1.666   3.975   0.925  1.4535 -0.7479  0.2494
 4678SOL     OW16027   5.876   1.321   8.093 -0.1654 -0.1376 -1.0436
 4678SOL    HW116028   5.915   1.240   8.061  0.9226  0.3267 -0.9340
 4678SOL    HW216029   5.950   1.381   8.102 -1.0249  1.0631 -1.7031
 4679SOL     OW16030   7.587   0.921   1.285  0.5425 -0.7587 -0.6776
 4679SOL    HW116031   7.571   1.007   1.246  0.1335 -0.8145 -0.6271
 4679SOL    HW216032   7.507   0.899   1.331  1.1506 -0.5308  0.5325
 4680SOL     OW16033   1.843   0.722   2.167 -0.2891  0.2656 -0.7507
 4680SOL    HW116034   1.933   0.698   2.144 -0.1738  0.1165 -0.1644
 4680SOL    HW216035   1.804   0.642   2.202 -0.5800  0.3820 -0.8033
 4681SOL     OW16036   7.750   5.894   5.512  0.4670 -0.5531 -0.1247
 4681SOL    HW116037   7.748   5.988   5.497  1.5622 -0.8215 -2.3036
 4681SOL    HW216038   7.836   5.866   5.479 -1.1663 -2.7693 -3.0231
 4682SOL     OW16039   4.573   7.985   3.690  0.4120 -0.2518  0.1136
 4682SOL    HW116040   4.505   7.955   3.630 -1.3962 -0.9193  2.3317
 4682SOL    HW216041   4.644   7.921   3.681 -0.2772 -0.9398 -0.5267
 4683SOL     OW16042   3.199   3.817   1.067  0.7768  0.4579  0.2229
 4683SOL    HW116043   3.216   3.787   0.977  2.2215  1.0361  0.2823
 4683SOL    HW216044   3.164   3.739   1.111 -0.0575  0.1913 -0.8525
 4684SOL     OW16045   8.572   8.522   1.546  0.3056 -0.2880  0.1090
 4684SOL    HW116046   8.582   8.464   1.470 -0.3084 -1.1681  0.6874
 4684SOL    HW216047   8.481   8.550   1.543  0.8824  1.7440 -0.8998
 4685SOL     OW16048   0.521   0.161   1.874 -0.9218  0.2553 -0.4151
 4685SOL    HW116049   0.542   0.208   1.793  2.4070  0.2549  0.3024
 4685SOL    HW216050   0.536   0.069   1.853  1.5199  0.3770  0.5238
 4686SOL     OW16051   8.345   8.451   7.778  0.9398 -0.1237 -0.9010
 4686SOL    HW116052   8.364   8.461   7.871  0.9673 -0.5361 -0.8613
 4686SOL    HW216053   8.289   8.374   7.772 -0.5179  0.9127 -1.0479
 4687SOL     OW16054   7.345   1.188   3.062 -0.1231  1.0608 -0.0418
 4687SOL    HW116055   7.304   1.185   2.976  0.0065 -2.5615 -0.1237
 4687SOL    HW216056   7.276   1.160   3.122  1.0887 -1.5872  0.2695
 4688SOL     OW16057   8.025   7.456   1.346  0.7314  0.2782  0.4473
 4688SOL    HW116058   7.930   7.443   1.345  0.8982 -1.0570 -0.5866
 4688SOL    HW216059   8.040   7.514   1.421 -0.7728 -0.5396  1.4386
 4689SOL     OW16060   2.976   0.352   6.204 -0.2441 -0.1906  1.0225
 4689SOL    HW116061   2.987   0.345   6.299 -2.0466 -1.5258  1.2084
 4689SOL    HW216062   2.917   0.279   6.182  1.1542 -0.7238 -1.3214
 4690SOL     OW16063   2.948   8.808   6.000 -0.4212 -0.0458  0.5422
 4690SOL    HW116064   2.869   8.767   5.964 -0.2410 -0.5555  0.7197
 4690SOL    HW216065   2.993   8.737   6.046  0.8313 -0.0829 -0.7006
 4691SOL     OW16066   4.735   3.969   5.378  0.4572 -0.0179  0.3805
 4691SOL    HW116067   4.725   4.049   5.430  1.5756  0.0413  0.5152
 4691SOL    HW216068   4.787   3.910   5.433 -0.7924 -1.0539  0.4989
 4692SOL     OW16069   6.735   5.336   3.063 -0.1533  0.2288  0.3008
 4692SOL    HW116070   6.766   5.418   3.023  0.6273  0.3581  1.1266
 4692SOL    HW216071   6.763   5.268   3.002 -3.4135  0.6688 -1.9883
 4693SOL     OW16072   4.784   0.480   7.133 -0.2068  0.6011 -0.7733
 4693SOL    HW116073   4.839   0.512   7.062 -1.1447  1.3119 -1.1988
 4693SOL    HW216074   4.701   0.526   7.122 -1.3858 -1.4251 -0.9925
 4694SOL     OW16075   2.310   3.827   5.618 -0.1745  0.1913  0.1581
 4694SOL    HW116076   2.221   3.851   5.642 -0.1992  1.6817 -1.2974
 4694SOL    HW216077   2.360   3.908   5.627  0.8725 -0.4358  0.1559
 4695SOL     OW16078   4.598   5.895   3.417 -0.1440 -0.2614  0.0058
 4695SOL    HW116079   4.547   5.938   3.486 -1.0030 -0.3190 -0.5740
 4695SOL    HW216080   4.662   5.961   3.390 -0.9077  0.3731 -0.3034
 4696SOL     OW16081   4.076   0.269   7.837 -0.3814  0.3220 -0.3202
 4696SOL    HW116082   4.072   0.316   7.754 -0.6226 -0.6572 -0.8878
 4696SOL    HW216083   4.074   0.177   7.812  1.5261 -0.0318  0.6785
 4697SOL     OW16084   7.254   6.400   3.513  0.3553  0.2628  0.1454
 4697SOL    HW116085   7.221   6.331   3.572 -2.6970  1.8287  0.4293
 4697SOL    HW216086   7.319   6.355   3.459  0.9917 -2.0068  2.5429
 4698SOL     OW16087   1.865   0.312   5.323  0.9380  0.0807 -0.2991
 4698SOL    HW116088   1.882   0.220   5.343  1.6302  0.2072 -0.2865
 4698SOL    HW216089   1.839   0.350   5.406 -0.0527 -0.2465 -0.4384
 4699SOL     OW16090   0.314   3.106   8.693 -0.0730  0.0581 -0.1059
 4699SOL    HW116091   0.396   3.089   8.741  0.7584 -2.3473 -2.1563
 4699SOL    HW216092   0.256   3.035   8.720 -0.2371 -0.2545 -1.2600
 4700SOL     OW16093   0.466   5.846   6.174 -0.7426 -0.2997  0.0271
 4700SOL    HW116094   0.461   5.920   6.114 -0.6497  0.3363  0.7848
 4700SOL    HW216095   0.396   5.862   6.237  0.8521  0.5031  1.6853
 4701SOL     OW16096   3.894   5.468   1.479  0.6613  0.4275 -0.3138
 4701SOL    HW116097   3.844   5.396   1.439  1.0399  0.9109 -1.7103
 4701SOL    HW216098   3.900   5.444   1.571  0.0969 -0.9432 -0.6025
 4702SOL     OW16099   2.693   0.173   2.579 -0.3033 -0.3572  0.0020
 4702SOL    HW116100   2.605   0.209   2.570 -0.2598 -0.2966 -0.1809
 4702SOL    HW216101   2.742   0.238   2.629 -0.0595  0.1211 -0.8297
 4703SOL     OW16102   2.836   7.696   0.616 -0.0368 -0.1819  0.0755
 4703SOL    HW116103   2.893   7.734   0.682 -0.5905  1.6209 -0.3961
 4703SOL    HW216104   2.866   7.735   0.533 -1.7926  0.7167 -0.2013
 4704SOL     OW16105   5.611   0.743   1.452 -0.0177  0.0556  0.0280
 4704SOL    HW116106   5.615   0.838   1.459  0.4132  0.1617 -1.3129
 4704SOL    HW216107   5.617   0.726   1.358 -1.2586 -1.2489  0.1513
 4705SOL     OW16108   4.615   1.612   6.252  0.3740  0.3021  0.2144
 4705SOL    HW116109   4.631   1.606   6.346  1.6086 -0.7792 -0.0385
 4705SOL    HW216110   4.645   1.699   6.228  0.6853  0.3335  0.7020
 4706SOL     OW16111   0.830   0.499   2.497  0.0445  0.6331 -0.1811
 4706SOL    HW116112   0.905   0.443   2.517  0.9199  1.7654 -0.1725
 4706SOL    HW216113   0.754   0.442   2.506  0.6395  0.1083  2.7894
 4707SOL     OW16114   4.712   8.103   3.199  0.5283 -0.5247  0.0550
 4707SOL    HW116115   4.778   8.094   3.131  0.8604 -0.0623  0.3188
 4707SOL    HW216116   4.640   8.151   3.157  1.6218  1.7291  0.6229
 4708SOL     OW16117   0.696   5.200   8.600  0.0206  0.1918  0.3754
 4708SOL    HW116118   0.657   5.116   8.623  0.5578  0.0543  0.7907
 4708SOL    HW216119   0.696   5.251   8.681  2.4941 -0.5246  0.9203
 4709SOL     OW16120   6.285   3.009   7.861 -0.5667  0.0307 -0.0457
 4709SOL    HW116121   6.234   2.942   7.906 -0.3029 -0.8873 -1.0409
 4709SOL    HW216122   6.257   3.002   7.769 -0.0425  0.8251 -0.2758
 4710SOL     OW16123   7.490   0.092   8.010 -0.1596  0.5419 -0.9047
 4710SOL    HW116124   7.504   0.035   8.085 -1.2642  0.8512 -0.4354
 4710SOL    HW216125   7.494   0.034   7.934 -0.5553 -0.0479 -0.4843
 4711SOL     OW16126   2.902   4.604   0.859 -0.4682 -0.2155  0.1218
 4711SOL    HW116127   2.847   4.548   0.803  0.0057  0.4399 -1.0240
 4711SOL    HW216128   2.848   4.620   0.937 -0.5389 -2.4396  0.6230
 4712SOL     OW16129   8.480   3.563   4.664 -0.6161  0.0161 -0.8853
 4712SOL    HW116130   8.438   3.604   4.589  1.8039  0.6940 -1.9573
 4712SOL    HW216131   8.572   3.555   4.639  0.8199  2.4075  2.8226
 4713SOL     OW16132   3.470   3.668   4.028 -0.2075 -0.8673  0.2152
 4713SOL    HW116133   3.548   3.701   3.982  1.0695 -3.7951  0.0506
 4713SOL    HW216134   3.400   3.674   3.963 -0.0878  1.3941  0.2153
 4714SOL     OW16135   3.005   4.393   6.912  0.4006  0.2587  0.3336
 4714SOL    HW116136   2.916   4.370   6.884  0.7708 -1.6820  0.6470
 4714SOL    HW216137   2.993   4.473   6.963 -1.2079 -0.0868  0.5689
 4715SOL     OW16138   0.878   7.838   2.081  0.4697 -0.2092  0.0570
 4715SOL    HW116139   0.802   7.784   2.103  0.0978  0.5403  0.6521
 4715SOL    HW216140   0.860   7.870   1.992 -0.7532  1.3404  0.8175
 4716SOL     OW16141   3.949   3.149   6.886  0.1095  0.3142  0.1581
 4716SOL    HW116142   3.940   3.056   6.904 -1.5466 -0.0140 -1.9149
 4716SOL    HW216143   3.883   3.191   6.941 -3.8611 -0.5206 -3.4359
 4717SOL     OW16144   5.035   0.887   8.265  0.5165 -0.4373 -0.4697
 4717SOL    HW116145   4.999   0.875   8.177  1.0321 -1.4829 -0.5501
 4717SOL    HW216146   4.969   0.850   8.323 -0.6388  1.8188 -0.2503
 4718SOL     OW16147   6.682   5.381   3.955 -0.2150 -0.6093  0.5042
 4718SOL    HW116148   6.737   5.369   3.878 -0.9175 -0.7089  0.0108
 4718SOL    HW216149   6.603   5.422   3.922 -0.9599 -1.6014  1.0094
 4719SOL     OW16150   2.959   4.500   2.102  0.7864 -0.4797 -0.1144
 4719SOL    HW116151   2.976   4.410   2.130 -2.2547  0.0546  4.3642
 4719SOL    HW216152   2.867   4.500   2.076  0.7438  1.3539 -0.0661
 4720SOL     OW16153   7.367   1.418   2.740  0.0757  0.6434 -0.1777
 4720SOL    HW116154   7.438   1.378   2.689  0.4041  0.4891  0.3933
 4720SOL    HW216155   7.340   1.494   2.688 -1.6516 -1.1609 -2.1016
 4721SOL     OW16156   5.968   0.371   4.051  0.0423  0.2001 -0.0296
 4721SOL    HW116157   6.055   0.347   4.081  1.3994  2.8291 -1.5273
 4721SOL    HW216158   5.955   0.322   3.970  0.1623 -0.1431  0.1596
 4722SOL     OW16159   0.532   2.227   7.820  0.5264  0.1477  0.4751
 4722SOL    HW116160   0.502   2.136   7.814 -1.0124  0.7146 -1.1453
 4722SOL    HW216161   0.620   2.226   7.781  0.4076 -0.5830  0.2045
 4723SOL     OW16162   5.834   1.151   0.745 -0.1610  0.0494 -0.0565
 4723SOL    HW116163   5.819   1.246   0.744  0.1085  0.0880 -0.5554
 4723SOL    HW216164   5.867   1.133   0.833  0.8530  0.5838 -0.3146
 4724SOL     OW16165   2.079   6.957   1.102 -0.5069  0.1682 -0.1992
 4724SOL    HW116166   2.018   6.996   1.164  0.1959 -0.2832  0.7979
 4724SOL    HW216167   2.045   6.981   1.016 -0.2770  2.6795  0.3521
 4725SOL     OW16168   4.494   7.132   8.773 -0.2006 -0.3213  0.1199
 4725SOL    HW116169   4.434   7.144   8.847  0.5485  0.9768  0.5574
 4725SOL    HW216170   4.443   7.082   8.709 -0.7359 -1.8356  1.6422
 4726SOL     OW16171   0.622   0.163   5.100 -0.4739 -0.0557 -0.1683
 4726SOL    HW116172   0.685   0.235   5.104 -1.4051  0.8005 -0.6764
 4726SOL    HW216173   0.548   0.198   5.051 -1.7448 -0.7332  1.1964
 4727SOL     OW16174   8.010   0.710   8.032 -0.3250 -0.1621 -0.1932
 4727SOL    HW116175   7.941   0.707   7.965 -0.2943  1.0263 -0.2977
 4727SOL    HW216176   7.964   0.731   8.113 -0.0667  1.0517 -0.3356
 4728SOL     OW16177   0.870   3.228   1.613 -0.1327 -0.0578  0.3423
 4728SOL    HW116178   0.863   3.174   1.534  0.2409  0.5619 -0.1270
 4728SOL    HW216179   0.793   3.206   1.665 -0.2034 -0.7184 -0.0436
 4729SOL     OW16180   1.328   2.652   5.288 -0.5246 -0.2067  0.2899
 4729SOL    HW116181   1.406   2.668   5.234  1.8445  0.8379  3.7332
 4729SOL    HW216182   1.341   2.564   5.323 -0.7848  0.0683  1.0796
 4730SOL     OW16183   3.750   8.639   6.435  0.8727 -0.5092 -0.0831
 4730SOL    HW116184   3.778   8.731   6.436 -1.0645  0.1356 -0.2859
 4730SOL    HW216185   3.824   8.591   6.472  1.4320  1.2862  1.2682
 4731SOL     OW16186   8.218   0.854   6.706 -0.2241 -0.1671  0.0314
 4731SOL    HW116187   8.187   0.826   6.792 -0.4222  0.5571  0.2055
 4731SOL    HW216188   8.199   0.948   6.704 -0.4748 -0.2333 -0.9118
 4732SOL     OW16189   5.408   6.219   4.302  0.0687  0.0808  0.0172
 4732SOL    HW116190   5.443   6.258   4.222 -0.3934 -0.7794 -0.6165
 4732SOL    HW216191   5.313   6.232   4.296  0.1401  1.5977  1.2967
 4733SOL     OW16192   4.695   2.684   2.312  0.2380  0.0496  1.1965
 4733SOL    HW116193   4.674   2.777   2.306  1.2955  0.2383 -0.1056
 4733SOL    HW216194   4.728   2.672   2.401 -3.0528  0.1625  2.5843
 4734SOL     OW16195   8.190   2.709   6.409 -0.1525 -0.7540 -0.0473
 4734SOL    HW116196   8.281   2.729   6.384 -0.2350 -0.7579 -0.3547
 4734SOL    HW216197   8.187   2.727   6.503 -0.5017  1.8527 -0.4727
 4735SOL     OW16198   5.752   5.833   1.889  0.0820 -0.0327 -0.1840
 4735SOL    HW116199   5.845   5.808   1.897  0.2625  0.6589 -0.0329
 4735SOL    HW216200   5.755   5.927   1.872 -0.5923 -0.0551 -0.4268
 4736SOL     OW16201   0.613   0.053   8.043 -0.6264  0.2741  0.1379
 4736SOL    HW116202   0.650   0.130   8.087 -0.1806 -0.8872  1.9180
 4736SOL    HW216203   0.687  -0.007   8.033 -0.7037  0.5121 -2.3665
 4737SOL     OW16204   6.643   6.582   4.669  0.3282  0.2224 -0.2196
 4737SOL    HW116205   6.724   6.544   4.702 -0.9695 -1.5030  1.2398
 4737SOL    HW216206   6.575   6.546   4.726 -1.4035  2.1218 -0.9685
 4738SOL     OW16207   3.699   0.466   1.624 -0.0057  0.2053 -0.5254
 4738SOL    HW116208   3.757   0.500   1.557 -0.2469  2.5822  0.3594
 4738SOL    HW216209   3.619   0.519   1.616 -1.1553 -1.4023 -0.2115
 4739SOL     OW16210   3.704   2.606   7.653 -0.5543  0.0950 -0.2381
 4739SOL    HW116211   3.719   2.592   7.747  0.2841 -0.2636 -0.4114
 4739SOL    HW216212   3.729   2.697   7.639  0.2879 -0.1345 -0.2863
 4740SOL     OW16213   6.055   0.921   8.590  0.1662  0.1424 -0.0258
 4740SOL    HW116214   5.964   0.923   8.620  0.7464  0.0282  1.9112
 4740SOL    HW216215   6.057   0.979   8.515 -1.0673  2.0073  1.3012
 4741SOL     OW16216   1.599   3.832   0.162 -0.0796  0.8126 -0.3668
 4741SOL    HW116217   1.665   3.786   0.214 -0.5294  0.8003  0.2043
 4741SOL    HW216218   1.614   3.925   0.181  0.6507  0.8966 -1.3054
 4742SOL     OW16219   0.761   8.646   7.618  0.3160  0.2773  0.5609
 4742SOL    HW116220   0.854   8.664   7.623  0.4378 -0.3418  0.6001
 4742SOL    HW216221   0.726   8.717   7.564  0.8139  0.4846  0.5055
 4743SOL     OW16222   0.178   7.598   4.657  0.7158  0.5750 -0.5750
 4743SOL    HW116223   0.270   7.621   4.670  1.0142  0.4208 -2.1643
 4743SOL    HW216224   0.179   7.541   4.580 -0.7941  1.2611 -1.1378
 4744SOL     OW16225   4.145   8.029   3.458 -0.2880 -0.4637  0.5337
 4744SOL    HW116226   4.130   8.117   3.493 -0.6034 -0.5814  0.6983
 4744SOL    HW216227   4.066   7.980   3.481  0.6861 -1.3478  2.2281
 4745SOL     OW16228   0.747   0.604   2.760  0.4213  0.5832  0.4301
 4745SOL    HW116229   0.716   0.685   2.720 -1.5017 -0.3248 -0.0529
 4745SOL    HW216230   0.785   0.555   2.687 -1.5044 -0.3327 -0.0268
 4746SOL     OW16231   3.213   3.118   1.332 -0.1037 -0.1824 -0.0819
 4746SOL    HW116232   3.264   3.106   1.412  0.9274 -0.7851 -0.8003
 4746SOL    HW216233   3.122   3.122   1.361  0.4018  3.1449  1.5084
 4747SOL     OW16234   1.455   6.727   1.132  0.1120 -0.0191 -0.1992
 4747SOL    HW116235   1.446   6.699   1.223  1.5678  0.6904  0.1942
 4747SOL    HW216236   1.482   6.819   1.138 -0.6868  0.3176 -1.3750
 4748SOL     OW16237   0.894   8.233   7.499 -0.2419 -0.4781  0.0414
 4748SOL    HW116238   0.870   8.164   7.561  0.7391 -0.2740  0.6728
 4748SOL    HW216239   0.943   8.296   7.551 -0.6269  0.4116 -0.6564
 4749SOL     OW16240   0.662   0.358   5.971  0.0450  0.4285  0.1969
 4749SOL    HW116241   0.636   0.266   5.959 -1.1834  1.0047 -2.1357
 4749SOL    HW216242   0.598   0.393   6.033 -0.1551 -0.0163  0.2490
 4750SOL     OW16243   8.876   6.513   5.456 -0.0600  0.1131 -0.1569
 4750SOL    HW116244   8.864   6.489   5.547  1.0434  0.7837  0.1885
 4750SOL    HW216245   8.935   6.589   5.458  0.5354 -0.2742 -1.4481
 4751SOL     OW16246   0.377   0.924   4.011  0.0545  0.8592  0.0896
 4751SOL    HW116247   0.288   0.890   4.001 -0.0321  0.8433  0.8887
 4751SOL    HW216248   0.382   0.995   3.947  0.0493 -0.2482 -1.2078
 4752SOL     OW16249   5.879   5.217   3.289 -0.2500 -0.5467  0.2480
 4752SOL    HW116250   5.848   5.262   3.210 -1.3923 -0.5558  0.6741
 4752SOL    HW216251   5.829   5.135   3.291  0.1006 -0.7524  0.7427
 4753SOL     OW16252   0.174   4.381   5.178 -0.3153 -0.1475  0.3056
 4753SOL    HW116253   0.160   4.417   5.265 -2.6900  0.5898 -0.3177
 4753SOL    HW216254   0.131   4.296   5.180 -1.0152  0.1811 -0.3392
 4754SOL     OW16255   5.537   0.328   3.666  0.4604 -0.0515 -0.4209
 4754SOL    HW116256   5.622   0.328   3.621 -0.0038  0.3619 -1.3173
 4754SOL    HW216257   5.480   0.381   3.610 -0.6240 -1.0254 -0.2728
 4755SOL     OW16258   7.409   1.372   3.383 -0.2016 -0.1877  0.2543
 4755SOL    HW116259   7.494   1.415   3.393  0.6554 -1.7018 -0.1126
 4755SOL    HW216260   7.374   1.407   3.301  0.9843 -0.9620 -0.6235
 4756SOL     OW16261   5.295   7.866   1.967  0.1051 -0.3347 -0.8827
 4756SOL    HW116262   5.341   7.826   2.041  0.2780  1.2436 -0.0974
 4756SOL    HW216263   5.356   7.858   1.894  1.8363  1.9686  0.2023
 4757SOL     OW16264   7.167   1.517   6.307  0.0227  0.0636  0.2845
 4757SOL    HW116265   7.129   1.590   6.258  1.5345  1.2609  0.8281
 4757SOL    HW216266   7.092   1.475   6.350 -0.8769  1.3182 -0.0098
 4758SOL     OW16267   8.794   8.580   8.842  0.5783 -0.0207 -0.1797
 4758SOL    HW116268   8.719   8.556   8.788  1.3206  1.2603 -1.8959
 4758SOL    HW216269   8.869   8.570   8.784  1.1264  4.4928 -0.6438
 4759SOL     OW16270   0.963   7.265   8.784 -0.2214  0.2135 -0.0443
 4759SOL    HW116271   0.994   7.177   8.763 -0.0964  0.1903  0.2354
 4759SOL    HW216272   0.962   7.268   8.880  0.4170  0.7411 -0.0495
 4760SOL     OW16273   3.722   8.161   4.119 -0.3499  0.5230  0.6465
 4760SOL    HW116274   3.691   8.234   4.174  2.2051  0.2015  2.7147
 4760SOL    HW216275   3.728   8.198   4.032 -3.1652  1.4950  0.7529
 4761SOL     OW16276   8.159   5.351   5.283 -0.1134  0.1697 -0.0871
 4761SOL    HW116277   8.235   5.336   5.341 -0.8141  1.7516  1.3362
 4761SOL    HW216278   8.177   5.297   5.206  1.7219 -0.6785  0.8546
 4762SOL     OW16279   2.741   4.707   1.422 -0.2924 -0.1278 -0.0740
 4762SOL    HW116280   2.725   4.785   1.475 -0.7049 -0.9207  1.0191
 4762SOL    HW216281   2.774   4.740   1.339 -0.6339  1.2114  0.3024
 4763SOL     OW16282   4.711   3.897   8.124  0.3571 -0.5159 -0.3904
 4763SOL    HW116283   4.743   3.872   8.037  1.4631 -0.1893 -0.0952
 4763SOL    HW216284   4.757   3.979   8.143 -0.0495 -0.4686  0.4049
 4764SOL     OW16285   2.339   1.085   1.881 -0.0517 -0.2788  0.0518
 4764SOL    HW116286   2.383   1.167   1.906  0.2160 -0.3246 -0.2711
 4764SOL    HW216287   2.280   1.067   1.954  0.5888 -0.3107  0.5704
 4765SOL     OW16288   4.478   4.733   6.888 -0.5327  0.1097 -0.1280
 4765SOL    HW116289   4.403   4.753   6.944 -0.6836  0.5002 -0.4651
 4765SOL    HW216290   4.554   4.739   6.947 -0.7740 -0.4502  0.2509
 4766SOL     OW16291   4.362   2.644   7.477  0.1010  0.1112  0.1974
 4766SOL    HW116292   4.418   2.567   7.487 -0.3965 -0.0842  1.9893
 4766SOL    HW216293   4.346   2.651   7.383 -1.0382 -2.8725  0.0591
 4767SOL     OW16294   7.622   1.259   4.781 -0.4425 -0.1502 -0.0077
 4767SOL    HW116295   7.557   1.282   4.715 -0.4873 -2.4586 -0.8409
 4767SOL    HW216296   7.614   1.328   4.848 -1.4821  1.3732 -1.6140
 4768SOL     OW16297   0.521   8.016   1.103  0.0837 -0.0487  0.0915
 4768SOL    HW116298   0.613   7.995   1.119  0.4755  0.3472 -1.4728
 4768SOL    HW216299   0.473   7.964   1.167  1.4194  0.2159  1.3446
 4769SOL     OW16300   6.022   4.326   7.542 -0.0062  0.7932 -0.2931
 4769SOL    HW116301   6.043   4.282   7.459  0.9229  0.7095 -0.0234
 4769SOL    HW216302   6.106   4.359   7.574 -0.3450  0.7834  0.6398
 4770SOL     OW16303   7.209   6.738   8.739 -0.9407  0.5346  0.1546
 4770SOL    HW116304   7.282   6.753   8.678 -1.6572  0.7032 -0.6906
 4770SOL    HW216305   7.246   6.684   8.809  0.0394  0.7827 -0.1630
 4771SOL     OW16306   6.364   1.857   8.588 -0.3923 -0.3026  0.2484
 4771SOL    HW116307   6.334   1.875   8.677  1.3155  1.5308  0.5312
 4771SOL    HW216308   6.427   1.786   8.597  1.0515  1.0028  0.8043
 4772SOL     OW16309   8.337   1.980   1.969  0.0699  0.0514 -0.2472
 4772SOL    HW116310   8.282   2.043   1.924  1.9927  1.6542 -0.5241
 4772SOL    HW216311   8.357   1.913   1.903 -3.0353 -1.7217  0.4033
 4773SOL     OW16312   5.224   4.641   6.744  0.3644  0.4713 -0.1563
 4773SOL    HW116313   5.239   4.657   6.837  1.9290 -0.1794 -0.2790
 4773SOL    HW216314   5.151   4.700   6.721 -0.1540  0.5117  1.4947
 4774SOL     OW16315   3.334   2.814   8.445 -0.0174  0.2059 -0.0686
 4774SOL    HW116316   3.306   2.729   8.412 -1.8000  0.8960 -0.4225
 4774SOL    HW216317   3.316   2.875   8.374  2.9496  0.6801 -0.5430
 4775SOL     OW16318   0.127   5.817   6.884  0.3805  0.2225 -0.7863
 4775SOL    HW116319   0.071   5.868   6.825  1.0462  2.0998  0.1091
 4775SOL    HW216320   0.074   5.806   6.963  0.6127  0.4390 -0.5992
 4776SOL     OW16321   7.805   4.068   4.930 -0.5881 -0.3257  0.2420
 4776SOL    HW116322   7.772   3.979   4.937  0.3139 -0.6890  0.0593
 4776SOL    HW216323   7.898   4.061   4.953 -0.7240  0.7395  1.2594
 4777SOL     OW16324   6.302   5.063   8.104  0.5163 -0.2910 -0.0325
 4777SOL    HW116325   6.312   5.100   8.016 -0.1992 -1.8361 -0.8022
 4777SOL    HW216326   6.389   5.073   8.143  0.6578  1.0716 -0.6391
 4778SOL     OW16327   5.447   2.209   3.262 -0.0605 -0.5874  0.6735
 4778SOL    HW116328   5.543   2.199   3.263  0.0842  0.5842  0.6770
 4778SOL    HW216329   5.433   2.296   3.300 -0.8715  0.9418 -2.7219
 4779SOL     OW16330   2.300   8.330   1.993 -0.3414  0.0371 -0.3901
 4779SOL    HW116331   2.343   8.415   1.983 -2.4986  1.2005 -0.4159
 4779SOL    HW216332   2.250   8.339   2.074  1.5197 -2.2547  1.1474
 4780SOL     OW16333   5.530   6.752   2.467 -0.3257  0.0940 -0.5990
 4780SOL    HW116334   5.464   6.808   2.509 -0.5759 -1.5383  1.3160
 4780SOL    HW216335   5.495   6.664   2.474  0.6092 -0.4856 -2.5007
 4781SOL     OW16336   8.603   0.899   0.515 -0.1864  0.3080  0.0473
 4781SOL    HW116337   8.681   0.914   0.570  0.5160 -2.6020 -0.0197
 4781SOL    HW216338   8.539   0.961   0.549  1.7929  2.0967  0.8028
 4782SOL     OW16339   1.418   4.816   1.652  0.2147 -0.4842  0.2156
 4782SOL    HW116340   1.398   4.736   1.700 -1.2492 -1.6772 -2.1720
 4782SOL    HW216341   1.431   4.787   1.562  1.7283  1.7541 -0.3535
 4783SOL     OW16342   4.016   3.907   3.271 -0.4817 -0.2651  0.2410
 4783SOL    HW116343   3.981   3.946   3.351 -0.0114 -0.4709  0.5546
 4783SOL    HW216344   3.957   3.834   3.252 -1.3123  0.5302 -0.2985
 4784SOL     OW16345   2.318   1.341   8.851 -0.0121 -0.5318 -0.1542
 4784SOL    HW116346   2.323   1.421   8.903 -0.4401 -0.4651 -0.2100
 4784SOL    HW216347   2.408   1.323   8.826 -0.2124  2.0083 -3.3084
 4785SOL     OW16348   5.031   7.496   8.433 -0.0954  0.3903  0.3422
 4785SOL    HW116349   5.006   7.584   8.461 -0.7520  0.5201 -0.6102
 4785SOL    HW216350   5.123   7.504   8.406  1.3435 -0.1978  4.3424
 4786SOL     OW16351   6.723   7.678   0.318 -0.0475  0.6453 -0.2236
 4786SOL    HW116352   6.682   7.615   0.376 -0.7065 -0.0705 -1.4451
 4786SOL    HW216353   6.787   7.723   0.374 -1.2462  0.5852  1.2630
 4787SOL     OW16354   5.867   6.446   4.171  0.4054 -0.0049  0.0978
 4787SOL    HW116355   5.940   6.499   4.203 -0.6436 -0.2267  3.1412
 4787SOL    HW216356   5.791   6.503   4.177 -0.1498 -0.6830 -0.2788
 4788SOL     OW16357   7.246   8.672   0.597 -0.0611 -0.4244  0.3182
 4788SOL    HW116358   7.158   8.702   0.576 -0.3090 -0.4899  1.2168
 4788SOL    HW216359   7.240   8.577   0.597  0.0326 -0.4303  0.2971
 4789SOL     OW16360   2.118   2.976   1.139  0.0745  0.4032 -0.1108
 4789SOL    HW116361   2.179   3.036   1.183 -1.0796  1.5924 -0.0565
 4789SOL    HW216362   2.057   2.950   1.208 -0.3425  0.3806 -0.4862
 4790SOL     OW16363   0.110   1.283   1.690  0.1670  0.0901 -0.8213
 4790SOL    HW116364   0.139   1.216   1.627  0.4289 -0.6068  0.0156
 4790SOL    HW216365   0.064   1.234   1.758  1.6177  0.5563  0.5612
 4791SOL     OW16366   3.202   6.835   2.993  0.0720 -0.2138 -0.1609
 4791SOL    HW116367   3.292   6.828   2.962 -0.1869 -1.0721 -0.7567
 4791SOL    HW216368   3.202   6.791   3.078  0.1482 -0.4997 -0.3077
 4792SOL     OW16369   6.878   3.095   2.145 -0.2736  0.1717  0.3273
 4792SOL    HW116370   6.903   3.120   2.056 -0.3492 -1.1789 -0.0958
 4792SOL    HW216371   6.854   3.003   2.138 -1.6105  0.4008  1.4879
 4793SOL     OW16372   3.069   0.338   4.201 -0.1096 -0.8058  0.2577
 4793SOL    HW116373   3.025   0.266   4.158 -0.4312 -0.5686  0.1848
 4793SOL    HW216374   3.126   0.376   4.134 -1.1459  0.0168 -0.1938
 4794SOL     OW16375   6.612   3.133   6.656  0.0619  0.1543  0.3277
 4794SOL    HW116376   6.617   3.163   6.747 -0.5280 -0.7885  0.6857
 4794SOL    HW216377   6.674   3.061   6.651  1.5319  1.4125 -0.5510
 4795SOL     OW16378   0.774   2.618   0.915  0.0461  0.4129 -0.0377
 4795SOL    HW116379   0.693   2.569   0.905  0.1673 -0.1618  1.6127
 4795SOL    HW216380   0.771   2.682   0.844 -1.3433 -0.2755 -0.6466
 4796SOL     OW16381   5.902   6.451   0.959  0.0965 -0.0830 -0.3203
 4796SOL    HW116382   5.935   6.509   1.027  1.0882  0.4016 -1.1799
 4796SOL    HW216383   5.923   6.363   0.989  1.8312  0.1888 -0.6255
 4797SOL     OW16384   6.045   7.868   6.542 -0.2485  0.0116 -0.6530
 4797SOL    HW116385   6.035   7.936   6.608  2.0128  0.8840 -1.1402
 4797SOL    HW216386   6.048   7.786   6.593 -1.5215  0.3698  0.0429
 4798SOL     OW16387   1.443   8.012   3.054 -0.3378 -0.1565 -0.5195
 4798SOL    HW116388   1.367   8.049   3.098 -0.3764  0.6452 -1.2297
 4798SOL    HW216389   1.518   8.060   3.091 -0.3422  0.2930 -1.0741
 4799SOL     OW16390   3.088   4.292   2.849  0.4101 -0.1567  0.1410
 4799SOL    HW116391   3.033   4.250   2.915 -0.1300  0.9867  0.4300
 4799SOL    HW216392   3.069   4.385   2.857  0.0160 -0.0166 -1.8944
 4800SOL     OW16393   6.432   7.572   2.524 -0.0689 -0.4622 -0.1990
 4800SOL    HW116394   6.343   7.593   2.496  0.7340  3.0668 -0.5647
 4800SOL    HW216395   6.487   7.633   2.475  2.3104 -0.8710  1.7987
 4801SOL     OW16396   0.298   8.301   1.717 -0.1118 -0.3482  0.2589
 4801SOL    HW116397   0.286   8.366   1.786  0.0714 -0.0955  0.0512
 4801SOL    HW216398   0.248   8.336   1.643  0.3267 -0.2430  0.0141
 4802SOL     OW16399   7.095   2.299   4.371 -0.3633  0.2064 -0.0157
 4802SOL    HW116400   7.012   2.252   4.374 -1.1344  1.5265  0.9016
 4802SOL    HW216401   7.070   2.389   4.350  0.7011  0.8463  1.2750
 4803SOL     OW16402   7.999   3.081   5.878  0.1496 -0.0862 -0.0735
 4803SOL    HW116403   8.018   3.175   5.882  0.0954 -0.0476 -0.6038
 4803SOL    HW216404   8.042   3.052   5.797  0.8051 -0.6667  0.4765
 4804SOL     OW16405   7.868   2.982   8.687  0.2478 -0.3771  0.2662
 4804SOL    HW116406   7.905   3.061   8.728 -0.3890  1.0509 -1.7208
 4804SOL    HW216407   7.774   2.996   8.688  0.2094  0.1742 -2.3184
 4805SOL     OW16408   0.249   5.539   7.125 -0.4248 -0.4422 -0.5076
 4805SOL    HW116409   0.298   5.493   7.193  0.2351  1.0887  0.0795
 4805SOL    HW216410   0.306   5.610   7.097 -1.9496  0.8708 -0.4151
 4806SOL     OW16411   0.027   1.552   8.721 -0.3459  0.4074 -0.6543
 4806SOL    HW116412   0.047   1.546   8.814  1.4818  2.1146 -0.8669
 4806SOL    HW216413  -0.066   1.574   8.718 -0.3231  0.7943  0.7970
 4807SOL     OW16414   7.955   0.495   6.386  0.3587  0.1997 -0.7806
 4807SOL    HW116415   8.023   0.561   6.403  1.2121 -0.8889  0.2315
 4807SOL    HW216416   7.941   0.499   6.292  0.3776  1.8305 -0.7442
 4808SOL     OW16417   1.014   8.348   7.794 -0.3758 -0.1434 -0.1509
 4808SOL    HW116418   1.026   8.255   7.810 -0.5661  0.2617  3.2464
 4808SOL    HW216419   1.095   8.388   7.826 -0.8157  0.9366 -0.3424
 4809SOL     OW16420   2.372   5.657   8.560  0.7763 -0.0584 -0.1801
 4809SOL    HW116421   2.342   5.689   8.475 -0.1016 -1.6831 -0.5479
 4809SOL    HW216422   2.339   5.567   8.563  0.1749  0.1802  2.1746
 4810SOL     OW16423   3.643   6.128   5.018  0.2066 -0.4408 -0.0972
 4810SOL    HW116424   3.648   6.097   5.108 -1.7451 -2.4206 -0.5910
 4810SOL    HW216425   3.636   6.224   5.027  1.2068 -0.4846  1.7418
 4811SOL     OW16426   5.349   4.413   7.681 -0.0336 -0.0974  0.7088
 4811SOL    HW116427   5.423   4.352   7.687  0.5705  0.2662 -1.7505
 4811SOL    HW216428   5.389   4.496   7.654 -1.2795  0.1208 -0.6018
 4812SOL     OW16429   2.794   6.359   3.469 -0.0929  0.0957 -0.0290
 4812SOL    HW116430   2.742   6.327   3.395 -0.6709  0.0668  0.3767
 4812SOL    HW216431   2.818   6.448   3.445 -0.9198  0.3558  0.0599
 4813SOL     OW16432   4.193   7.715   4.140  0.1447  0.3272 -0.1801
 4813SOL    HW116433   4.259   7.784   4.138 -0.1327  0.8428  2.8856
 4813SOL    HW216434   4.137   7.733   4.065  1.6704  1.7589 -1.0480
 4814SOL     OW16435   2.852   7.503   6.489  0.3826  0.0503 -0.4270
 4814SOL    HW116436   2.831   7.591   6.520  2.3053  0.1276  0.7764
 4814SOL    HW216437   2.946   7.505   6.471 -0.0481 -0.9515 -3.2829
 4815SOL     OW16438   2.826   1.935   2.210 -0.0608 -0.3892 -0.6083
 4815SOL    HW116439   2.812   2.028   2.231  0.0248 -0.7416  1.1802
 4815SOL    HW216440   2.761   1.915   2.144  0.0885  1.0148 -1.2185
 4816SOL     OW16441   3.645   1.995   5.103  0.3318 -0.1606 -0.0381
 4816SOL    HW116442   3.641   2.090   5.114  0.1194 -0.4057  2.7908
 4816SOL    HW216443   3.721   1.980   5.047 -0.1853  1.6807 -1.3369
 4817SOL     OW16444   1.183   8.509   8.821 -0.4924 -0.0268  0.8401
 4817SOL    HW116445   1.179   8.592   8.773  0.7894 -1.4363 -1.9424
 4817SOL    HW216446   1.250   8.523   8.887 -0.5752  1.2769  0.6695
 4818SOL     OW16447   4.636   4.902   1.083  0.0810 -0.3274 -0.5208
 4818SOL    HW116448   4.671   4.876   1.168 -0.1009  0.7319 -0.1097
 4818SOL    HW216449   4.544   4.877   1.086 -0.1918  0.6918  0.0300
 4819SOL     OW16450   4.002   3.523   3.121 -0.2242 -0.0644 -0.1266
 4819SOL    HW116451   3.968   3.525   3.211  2.3828 -2.1786  1.0398
 4819SOL    HW216452   3.924   3.530   3.066 -1.8514  2.4163  2.2081
 4820SOL     OW16453   4.718   4.327   6.566  0.4673  0.1428 -0.3067
 4820SOL    HW116454   4.683   4.313   6.653  1.8985  1.7477  0.5804
 4820SOL    HW216455   4.641   4.343   6.511 -0.4032 -0.1924  0.7825
 4821SOL     OW16456   1.636   1.979   5.418  0.3449 -0.0184  0.4351
 4821SOL    HW116457   1.718   2.025   5.400 -0.8452  1.7923 -0.7186
 4821SOL    HW216458   1.650   1.891   5.385  1.7736  0.3061  0.1136
 4822SOL     OW16459   0.977   2.769   4.716  0.1374 -0.0015  0.3252
 4822SOL    HW116460   0.960   2.844   4.659  2.0726  0.9866  0.9612
 4822SOL    HW216461   0.956   2.800   4.804  1.6493  0.0846  0.6827
 4823SOL     OW16462   0.079   1.203   5.633 -0.8139  0.4217  0.0119
 4823SOL    HW116463   0.015   1.149   5.680 -0.2445  0.8507  1.3220
 4823SOL    HW216464   0.151   1.213   5.695  1.0042 -0.8758 -1.7662
 4824SOL     OW16465   4.322   5.158   1.860 -0.4984 -0.5301  0.2435
 4824SOL    HW116466   4.317   5.104   1.938 -0.3535 -2.2466 -0.8808
 4824SOL    HW216467   4.405   5.135   1.820 -0.4425  0.5278 -0.2997
 4825SOL     OW16468   1.146   1.362   8.720  0.1046  0.3642  0.3645
 4825SOL    HW116469   1.208   1.328   8.784  0.5520 -0.0933 -0.3032
 4825SOL    HW216470   1.158   1.456   8.722  1.1422  0.2499 -0.0790
 4826SOL     OW16471   2.876   1.455   1.539 -0.0513  0.6279  0.2646
 4826SOL    HW116472   2.850   1.460   1.446  1.3192 -2.4441 -0.3899
 4826SOL    HW216473   2.916   1.540   1.557 -0.8745  1.5169 -1.7679
 4827SOL     OW16474   1.806   6.586   1.424 -0.0865 -0.7142 -0.5896
 4827SOL    HW116475   1.729   6.566   1.477  0.2555  0.5836  0.4574
 4827SOL    HW216476   1.881   6.571   1.482  0.3877 -0.7235 -1.1827
 4828SOL     OW16477   2.549   8.257   3.159 -0.7002 -0.3883  0.1074
 4828SOL    HW116478   2.552   8.247   3.064  0.1342  0.5507  0.0227
 4828SOL    HW216479   2.513   8.345   3.173 -0.4332 -0.3595  0.6477
 4829SOL     OW16480   0.047   0.765   5.224 -0.1240  0.3759  0.2400
 4829SOL    HW116481   0.016   0.834   5.282  1.1299  2.0380 -0.9843
 4829SOL    HW216482   0.010   0.786   5.138  1.1164  0.1522 -0.3797
 4830SOL     OW16483   2.329   2.178   0.232  0.1591  0.1910 -0.1562
 4830SOL    HW116484   2.322   2.268   0.262  1.4864  0.7147 -1.3179
 4830SOL    HW216485   2.328   2.184   0.136  3.1034 -0.6953 -0.3330
 4831SOL     OW16486   5.767   1.059   5.978 -0.4037 -0.2432 -0.3728
 4831SOL    HW116487   5.776   1.016   6.063 -0.4764 -0.1462 -0.3164
 4831SOL    HW216488   5.785   1.151   5.996  3.2040 -0.6453 -1.0399
 4832SOL     OW16489   7.016   5.684   0.027 -0.0882 -0.0574  0.1747
 4832SOL    HW116490   7.091   5.671  -0.030  0.3594 -2.8067  1.2346
 4832SOL    HW216491   6.941   5.683  -0.033  0.5447  0.2422 -0.6520
 4833SOL     OW16492   2.946   1.094   5.958  0.0336  0.3654  0.2350
 4833SOL    HW116493   2.928   1.145   5.879  0.6258  0.3874  0.1113
 4833SOL    HW216494   3.018   1.036   5.933 -0.9350 -0.8772  0.2251
 4834SOL     OW16495   7.522   1.279   7.175  0.3470 -0.2775 -0.4263
 4834SOL    HW116496   7.569   1.312   7.098 -0.0813 -1.2173 -1.1002
 4834SOL    HW216497   7.494   1.358   7.221 -0.2600  0.3238 -1.7613
 4835SOL     OW16498   2.907   7.944   4.397  0.3370 -0.1114 -0.3602
 4835SOL    HW116499   2.969   8.017   4.388  0.9685 -0.6100 -0.1614
 4835SOL    HW216500   2.928   7.906   4.483  0.2601 -0.7489 -0.6205
 4836SOL     OW16501   8.664   0.847   4.523  0.6135  0.9320 -0.2704
 4836SOL    HW116502   8.735   0.911   4.516 -0.5762  2.4000  0.3987
 4836SOL    HW216503   8.587   0.893   4.489  0.0258 -0.7593 -1.3715
 4837SOL     OW16504   3.890   4.283   3.838  0.0546  0.3900  0.5898
 4837SOL    HW116505   3.983   4.287   3.818 -0.2243 -1.4663 -1.3590
 4837SOL    HW216506   3.878   4.199   3.880 -0.6927  0.8228  1.2690
 4838SOL     OW16507   3.105   5.924   1.750 -0.0168  0.6324 -0.1473
 4838SOL    HW116508   3.016   5.892   1.764  0.8368 -2.3147 -0.6649
 4838SOL    HW216509   3.102   5.968   1.665 -0.4882 -1.9147 -1.5437
 4839SOL     OW16510   8.408   2.959   7.945 -0.0932 -0.0822  0.1285
 4839SOL    HW116511   8.420   2.867   7.969  1.0676  0.3089  1.1102
 4839SOL    HW216512   8.381   2.957   7.853  2.4836 -1.2934 -0.6655
 4840SOL     OW16513   7.385   8.858   1.482 -0.2261  0.7210 -0.0489
 4840SOL    HW116514   7.326   8.844   1.556 -0.4338  2.8623  0.2473
 4840SOL    HW216515   7.462   8.901   1.520  0.1027  0.9277 -0.9182
 4841SOL     OW16516   1.377   1.593   8.190 -0.1469 -0.1003  0.3801
 4841SOL    HW116517   1.317   1.646   8.242 -0.2697  0.1707 -0.0399
 4841SOL    HW216518   1.456   1.587   8.244  0.0021  0.8088  0.2823
 4842SOL     OW16519   5.860   6.265   4.367  0.7501 -0.1912 -0.0184
 4842SOL    HW116520   5.859   6.306   4.281 -0.5054  2.2765  1.0546
 4842SOL    HW216521   5.795   6.314   4.418  1.8024 -1.1961  2.4905
 4843SOL     OW16522   5.311   0.372   0.750  0.3571 -0.0066 -0.2237
 4843SOL    HW116523   5.377   0.355   0.683  0.3812  0.1338 -0.2352
 4843SOL    HW216524   5.279   0.285   0.775  0.1844 -0.0505 -0.5826
 4844SOL     OW16525   3.454   3.422   5.597  0.0790 -0.1928  0.1121
 4844SOL    HW116526   3.530   3.379   5.635  0.2383 -1.0289 -1.0898
 4844SOL    HW216527   3.414   3.356   5.540  0.8006  1.3957 -2.4513
 4845SOL     OW16528   7.681   3.392   0.445 -0.0056 -0.0149 -0.3250
 4845SOL    HW116529   7.767   3.410   0.407  0.6947 -0.6370  0.8817
 4845SOL    HW216530   7.660   3.473   0.493  0.9325 -0.6064  1.1552
 4846SOL     OW16531   3.489   5.491   1.863 -0.1113 -0.3949 -0.0450
 4846SOL    HW116532   3.530   5.412   1.827  2.0138 -0.1680  1.7576
 4846SOL    HW216533   3.407   5.499   1.812  1.5227 -1.4058 -3.1254
 4847SOL     OW16534   4.564   4.303   4.127  0.0954  0.8239 -0.3942
 4847SOL    HW116535   4.536   4.277   4.040  0.0904 -1.2339  0.1699
 4847SOL    HW216536   4.554   4.399   4.128  1.3469  1.0704 -3.0554
 4848SOL     OW16537   1.452   6.991   5.221  0.0540  0.2462  0.6025
 4848SOL    HW116538   1.477   7.001   5.129  1.5627  0.1652  0.9795
 4848SOL    HW216539   1.357   7.000   5.221 -0.0786 -0.7605 -1.1021
 4849SOL     OW16540   6.449   1.265   4.061  0.4240 -0.0120  0.6929
 4849SOL    HW116541   6.531   1.266   4.111 -0.8070 -1.5321  2.8892
 4849SOL    HW216542   6.412   1.352   4.074  1.1601  0.3238  0.5951
 4850SOL     OW16543   8.592   8.624   6.249 -0.2013 -0.4555 -0.4074
 4850SOL    HW116544   8.666   8.673   6.286  1.4807 -3.1546  0.0592
 4850SOL    HW216545   8.515   8.670   6.282  1.2026  2.1181 -0.3927
 4851SOL     OW16546   6.688   5.379   0.636 -0.5186 -0.3447 -0.0115
 4851SOL    HW116547   6.713   5.449   0.575  1.0261  0.3919  1.3942
 4851SOL    HW216548   6.596   5.397   0.655 -0.2303  1.1771  0.0984
 4852SOL     OW16549   0.275   6.821   8.014  0.0710  0.4400 -0.0448
 4852SOL    HW116550   0.294   6.803   8.106  0.7574  1.9584  0.1362
 4852SOL    HW216551   0.190   6.865   8.015  0.0264  0.3574 -0.1500
 4853SOL     OW16552   6.338   8.176   7.146 -0.0853 -0.3640 -0.2123
 4853SOL    HW116553   6.394   8.175   7.068 -0.5051 -0.3041 -0.5142
 4853SOL    HW216554   6.322   8.083   7.164  1.6531 -0.4796  0.9965
 4854SOL     OW16555   0.073   1.433   5.879  0.3558 -0.6637  0.2139
 4854SOL    HW116556   0.145   1.394   5.829 -0.3387 -0.5500 -0.9014
 4854SOL    HW216557   0.017   1.360   5.902 -0.0100 -0.5589 -0.3254
 4855SOL     OW16558   6.652   6.071   6.177  0.0015  0.1560  0.4545
 4855SOL    HW116559   6.723   6.066   6.241  0.3835  1.5701  0.1854
 4855SOL    HW216560   6.673   6.004   6.112 -0.1943 -1.0463  1.6024
 4856SOL     OW16561   8.836   4.388   8.462 -1.0123  0.3220 -0.4280
 4856SOL    HW116562   8.776   4.341   8.403  0.8933 -0.1129 -2.1082
 4856SOL    HW216563   8.902   4.322   8.485 -0.4468  1.1436  0.3291
 4857SOL     OW16564   8.236   4.223   5.916 -0.5886  0.7226 -0.2523
 4857SOL    HW116565   8.253   4.256   6.004  1.0954 -0.1522 -0.2098
 4857SOL    HW216566   8.195   4.138   5.931 -1.4814  1.1316 -0.3355
 4858SOL     OW16567   5.328   0.677   0.233 -0.3607 -0.0991  0.0709
 4858SOL    HW116568   5.332   0.773   0.239  0.8955  0.0480 -2.0029
 4858SOL    HW216569   5.359   0.646   0.318  2.5191  1.3797 -0.3333
 4859SOL     OW16570   2.591   5.352   4.584  0.0237  0.5927  0.3764
 4859SOL    HW116571   2.575   5.285   4.651  0.2764  2.0972  2.0282
 4859SOL    HW216572   2.518   5.413   4.595 -1.0613 -0.1071 -2.1427
 4860SOL     OW16573   4.437   1.791   1.796 -0.9480  0.6547 -0.3383
 4860SOL    HW116574   4.483   1.757   1.719  0.2031  0.4937  0.4011
 4860SOL    HW216575   4.360   1.735   1.803  0.2766 -1.0737  0.1305
 4861SOL     OW16576   5.728   5.186   1.250  0.7649  0.3520 -0.0553
 4861SOL    HW116577   5.800   5.210   1.192  1.0512 -0.2809  0.0394
 4861SOL    HW216578   5.672   5.264   1.252  0.0502 -0.0455 -2.2120
 4862SOL     OW16579   0.506   6.731   4.259  0.2099  0.1505  0.6205
 4862SOL    HW116580   0.556   6.813   4.257  0.8439 -0.2145  1.3208
 4862SOL    HW216581   0.494   6.709   4.166  2.5979 -0.4899  0.3958
 4863SOL     OW16582   4.382   4.179   5.119 -0.1035 -0.4046 -0.6726
 4863SOL    HW116583   4.291   4.151   5.123 -0.2636  0.2114  0.2979
 4863SOL    HW216584   4.419   4.131   5.044 -2.0782  1.9823 -3.3619
 4864SOL     OW16585   5.596   6.492   3.093  0.5810  0.2883 -0.3420
 4864SOL    HW116586   5.558   6.560   3.149  0.9990  0.8705 -0.7484
 4864SOL    HW216587   5.526   6.428   3.081 -0.6689  1.8700 -1.9676
 4865SOL     OW16588   0.823   6.881   4.190 -0.1485 -0.1880 -0.1146
 4865SOL    HW116589   0.848   6.834   4.110 -0.7998  1.1720 -1.1664
 4865SOL    HW216590   0.898   6.936   4.210 -1.0041  1.5560 -1.4563
 4866SOL     OW16591   5.875   3.116   6.339  0.1918  0.1024 -0.2310
 4866SOL    HW116592   5.787   3.136   6.372  0.4584  0.8994  0.0160
 4866SOL    HW216593   5.917   3.069   6.411  0.1729  0.2680 -0.1100
 4867SOL     OW16594   6.674   2.006   1.517 -0.4183 -0.2843  0.0403
 4867SOL    HW116595   6.687   2.098   1.495 -2.2402 -0.3565 -1.6021
 4867SOL    HW216596   6.580   1.992   1.508  0.0037 -2.6995 -1.5542
 4868SOL     OW16597   8.211   4.684   4.597  0.0321  0.3632  0.1858
 4868SOL    HW116598   8.192   4.609   4.652 -2.2259  1.1055  0.5327
 4868SOL    HW216599   8.176   4.759   4.646  2.8430  1.7993  0.1950
 4869SOL     OW16600   0.689   4.676   1.586  0.3195  0.5011  0.5252
 4869SOL    HW116601   0.607   4.699   1.542  0.4709  0.7509  0.3751
 4869SOL    HW216602   0.664   4.608   1.648  0.1536 -0.0801 -0.1597
 4870SOL     OW16603   0.939   0.916   8.240  0.4132  0.3733  0.0731
 4870SOL    HW116604   0.858   0.950   8.280  0.8731  1.5394  0.0492
 4870SOL    HW216605   1.001   0.989   8.246  1.0163 -0.0082 -1.2331
 4871SOL     OW16606   0.362   5.753   7.010 -0.1562 -0.0315 -0.3412
 4871SOL    HW116607   0.284   5.780   6.960 -0.3651  0.1112  0.0514
 4871SOL    HW216608   0.384   5.831   7.062  0.8585  0.2672 -1.1952
 4872SOL     OW16609   4.628   7.674   3.516 -0.8045 -0.3690  0.0520
 4872SOL    HW116610   4.647   7.731   3.442 -0.6396 -0.0785  0.3161
 4872SOL    HW216611   4.699   7.691   3.578 -1.3036 -0.1219  0.5568
 4873SOL     OW16612   5.007   5.491   4.808 -0.0708 -0.5218 -0.1354
 4873SOL    HW116613   5.091   5.511   4.850 -0.0937 -1.9853  0.6617
 4873SOL    HW216614   4.992   5.399   4.828 -1.8648 -0.2827 -0.2852
 4874SOL     OW16615   4.859   3.300   7.419 -0.1344 -0.2114 -0.1079
 4874SOL    HW116616   4.873   3.346   7.502  1.8634  0.6102 -0.8256
 4874SOL    HW216617   4.925   3.232   7.417 -1.2411 -1.3201 -0.3289
 4875SOL     OW16618   4.244   6.892   8.844  0.0052  0.3655 -0.4404
 4875SOL    HW116619   4.234   6.986   8.829  0.2645  0.2674 -1.2501
 4875SOL    HW216620   4.158   6.863   8.874  0.4107  1.2003  1.7962
 4876SOL     OW16621   0.667   4.542   8.753  0.1535 -0.3367 -0.0468
 4876SOL    HW116622   0.701   4.496   8.677 -0.4164  0.0059 -0.5166
 4876SOL    HW216623   0.662   4.475   8.821  0.9569 -0.5770 -0.2141
 4877SOL     OW16624   4.375   2.800   4.217  0.5617  0.1558 -0.1313
 4877SOL    HW116625   4.344   2.733   4.157  0.9054  0.8608 -1.1206
 4877SOL    HW216626   4.407   2.752   4.293  1.4742 -0.8488 -1.1177
 4878SOL     OW16627   2.295   6.454   0.064 -0.3710 -0.2499 -0.1731
 4878SOL    HW116628   2.378   6.500   0.080  0.2882 -1.5595  0.2787
 4878SOL    HW216629   2.230   6.505   0.111  0.3849  0.0926  0.5321
 4879SOL     OW16630   7.416   3.223   4.596 -0.0990  0.1555 -0.4270
 4879SOL    HW116631   7.331   3.262   4.581 -0.7416 -1.0530 -0.1124
 4879SOL    HW216632   7.451   3.206   4.509 -0.6211 -0.2206 -0.5712
 4880SOL     OW16633   0.284   3.033   0.470  0.1598 -0.2688 -0.3383
 4880SOL    HW116634   0.203   2.998   0.435  0.1093 -1.9727  1.3125
 4880SOL    HW216635   0.352   2.975   0.436  0.2628 -1.0271  1.0748
 4881SOL     OW16636   3.158   3.150   8.148 -0.4895  0.2595 -0.2958
 4881SOL    HW116637   3.252   3.133   8.146 -0.1504  2.0472 -1.0776
 4881SOL    HW216638   3.123   3.098   8.076 -0.2174 -0.8570  0.3479
 4882SOL     OW16639   6.805   3.220   0.250  0.0105 -0.0592 -0.0574
 4882SOL    HW116640   6.893   3.227   0.213 -0.3308  2.9853 -0.5734
 4882SOL    HW216641   6.748   3.212   0.174 -0.3029  0.1719  0.1524
 4883SOL     OW16642   1.254   8.251   1.585  0.2598  0.0726 -0.5380
 4883SOL    HW116643   1.331   8.219   1.630  0.1893 -1.6792 -1.5675
 4883SOL    HW216644   1.275   8.241   1.492 -1.6128 -1.6205 -0.8482
 4884SOL     OW16645   0.278   7.046   6.990 -0.0372  0.6408  0.4189
 4884SOL    HW116646   0.273   6.951   6.975  1.5500  0.6814 -0.6342
 4884SOL    HW216647   0.236   7.059   7.075 -2.2651 -0.7095 -0.3941
 4885SOL     OW16648   2.255   3.950   6.948 -0.3421  0.3730 -0.0094
 4885SOL    HW116649   2.329   3.928   6.892 -0.0447 -0.0832  0.5570
 4885SOL    HW216650   2.214   3.866   6.970 -1.1254  0.6273 -0.4389
 4886SOL     OW16651   5.341   0.438   5.981 -0.0525  0.4287  1.0785
 4886SOL    HW116652   5.270   0.432   5.917 -0.1402  3.0415  0.8297
 4886SOL    HW216653   5.316   0.378   6.051 -0.1008 -2.2955 -1.1191
 4887SOL     OW16654   6.971   8.443   6.702 -0.0889 -0.2117  0.2232
 4887SOL    HW116655   7.055   8.469   6.665  0.9364  0.0182  2.5068
 4887SOL    HW216656   6.944   8.367   6.650  1.4351 -0.1847 -0.6737
 4888SOL     OW16657   5.765   1.550   2.175  0.3715 -0.4595 -0.4070
 4888SOL    HW116658   5.813   1.631   2.160  0.5763 -0.3720  0.6407
 4888SOL    HW216659   5.738   1.521   2.088  1.7916 -0.1936 -0.9526
 4889SOL     OW16660   5.366   1.642   5.681 -0.5867  0.8725 -0.3778
 4889SOL    HW116661   5.398   1.670   5.767  0.8049  0.3422 -0.6978
 4889SOL    HW216662   5.435   1.670   5.620 -0.1406 -1.3198 -0.9575
 4890SOL     OW16663   2.432   1.094   8.550  0.2934 -0.6783 -0.1391
 4890SOL    HW116664   2.428   1.150   8.472 -0.0615 -0.1788  0.2277
 4890SOL    HW216665   2.362   1.128   8.607  1.7330  0.1745  1.1874
 4891SOL     OW16666   8.270   2.270   3.470  0.1522 -0.0525 -0.2714
 4891SOL    HW116667   8.175   2.280   3.466  0.1151 -0.3375 -0.0677
 4891SOL    HW216668   8.288   2.243   3.559  0.3065 -1.3598 -0.6868
 4892SOL     OW16669   7.148   3.826   6.962  0.2517  0.3011  0.3040
 4892SOL    HW116670   7.200   3.791   6.889  0.3294  0.2245  0.3958
 4892SOL    HW216671   7.112   3.748   7.004 -1.5845  0.4031 -0.9672
 4893SOL     OW16672   4.609   4.922   8.847  0.2787 -0.0636  0.3684
 4893SOL    HW116673   4.588   4.902   8.756 -0.5228 -0.2147  0.5814
 4893SOL    HW216674   4.642   5.011   8.845 -0.3056  0.1512  0.0042
 4894SOL     OW16675   3.940   0.285   8.356  0.1476  0.2157 -0.2948
 4894SOL    HW116676   4.004   0.356   8.363  1.9201 -1.2862 -0.4475
 4894SOL    HW216677   3.918   0.281   8.263  0.2783  0.3644 -0.3331
 4895SOL     OW16678   3.171   4.658   7.006  0.3327 -0.1253  0.0688
 4895SOL    HW116679   3.242   4.716   7.036  1.8782 -1.8420 -0.1096
 4895SOL    HW216680   3.172   4.668   6.910  0.8210 -0.6750  0.0133
 4896SOL     OW16681   2.601   5.283   8.542  0.5223 -0.0569 -0.0744
 4896SOL    HW116682   2.569   5.294   8.452 -0.5881  0.5407  0.3752
 4896SOL    HW216683   2.596   5.370   8.580  3.2428  0.2026 -0.1071
 4897SOL     OW16684   4.296   0.278   8.136  0.3497 -0.4101 -0.2895
 4897SOL    HW116685   4.333   0.197   8.171 -0.6217 -0.0204  1.8084
 4897SOL    HW216686   4.237   0.250   8.067 -0.1154 -1.5356  0.5429
 4898SOL     OW16687   6.473   8.198   5.925 -0.4607  0.5711  0.2085
 4898SOL    HW116688   6.399   8.174   5.980 -1.2346 -0.2858 -1.1323
 4898SOL    HW216689   6.482   8.293   5.936 -0.6724  0.4356  1.6711
 4899SOL     OW16690   1.523   0.033   1.458 -0.1650 -0.3747 -0.1007
 4899SOL    HW116691   1.545  -0.003   1.543 -0.0609  1.7409  0.8414
 4899SOL    HW216692   1.582   0.107   1.447 -2.7334  1.8233 -0.1729
 4900SOL     OW16693   7.107   6.248   2.437 -0.0959 -0.4536 -0.3060
 4900SOL    HW116694   7.061   6.163   2.440  0.0411 -0.5024  1.2962
 4900SOL    HW216695   7.197   6.227   2.463  0.0936  0.0928 -0.5155
 4901SOL     OW16696   5.951   5.124   8.061  0.1581  0.5385  0.6957
 4901SOL    HW116697   5.862   5.158   8.067  0.2207  0.7676  0.3521
 4901SOL    HW216698   5.954   5.052   8.124  0.4051  2.0312  2.5058
 4902SOL     OW16699   4.015   6.229   5.017  0.1928 -0.3272  0.3317
 4902SOL    HW116700   3.945   6.202   5.076 -0.0915 -1.0075 -0.3030
 4902SOL    HW216701   4.095   6.194   5.057  0.2049  0.6055  1.1518
 4903SOL     OW16702   0.665   8.358   0.293  0.3933  0.3247  0.1860
 4903SOL    HW116703   0.751   8.396   0.310 -0.5162  1.4820  2.8311
 4903SOL    HW216704   0.657   8.287   0.357  0.2327 -1.3605 -1.6085
 4904SOL     OW16705   4.190   2.180   5.084 -0.4386 -0.3242 -0.0008
 4904SOL    HW116706   4.193   2.241   5.010 -0.9219  1.6828  1.5265
 4904SOL    HW216707   4.101   2.144   5.082 -0.4400 -0.2963 -0.4189
 4905SOL     OW16708   1.522   4.022   8.049 -0.1394 -0.5856  0.4854
 4905SOL    HW116709   1.434   3.994   8.073 -0.9625 -0.5352 -2.1171
 4905SOL    HW216710   1.570   3.940   8.034 -0.3943 -0.6295 -0.1285
 4906SOL     OW16711   4.131   4.809   7.955 -0.5797 -0.1554  0.0922
 4906SOL    HW116712   4.158   4.720   7.933  2.1506  0.4577  0.5069
 4906SOL    HW216713   4.135   4.856   7.871 -1.7853 -0.3503 -0.0849
 4907SOL     OW16714   0.551   6.657   5.700  0.5801 -0.2089 -0.1272
 4907SOL    HW116715   0.622   6.721   5.698  0.9489 -0.5992 -2.9378
 4907SOL    HW216716   0.485   6.693   5.640 -1.0223 -0.5316  1.3673
 4908SOL     OW16717   0.437   5.988   5.168  0.0188  0.2246 -0.1214
 4908SOL    HW116718   0.491   6.065   5.151 -0.0521 -0.1294 -2.3628
 4908SOL    HW216719   0.484   5.917   5.124  0.2267 -1.1099  2.1218
 4909SOL     OW16720   6.616   0.692   3.879 -0.3755  0.3057  0.9789
 4909SOL    HW116721   6.709   0.671   3.869 -0.4247  0.2232  0.7025
 4909SOL    HW216722   6.596   0.668   3.970 -0.5373 -1.2605  0.5570
 4910SOL     OW16723   5.008   2.547   5.928 -0.1494 -0.4857  0.2542
 4910SOL    HW116724   5.033   2.574   5.840 -0.3442 -1.9076 -0.2691
 4910SOL    HW216725   5.068   2.594   5.986  0.2689  0.1277 -0.6574
 4911SOL     OW16726   4.975   8.610   8.047 -0.3726  0.1597 -0.0083
 4911SOL    HW116727   4.915   8.682   8.029  0.3513  0.6692 -0.4637
 4911SOL    HW216728   5.056   8.653   8.076 -0.2626 -0.5127  0.7146
 4912SOL     OW16729   6.254   1.873   6.265  0.5106 -0.6627 -0.5901
 4912SOL    HW116730   6.170   1.907   6.236  1.5624  1.3043 -1.4386
 4912SOL    HW216731   6.307   1.866   6.186  2.2308  1.3620  0.2844
 4913SOL     OW16732   0.164   7.834   3.195 -0.2592  0.6704  0.4879
 4913SOL    HW116733   0.146   7.880   3.276 -0.6570 -0.1811  0.8917
 4913SOL    HW216734   0.078   7.810   3.161 -0.0264 -0.6288  0.7908
 4914SOL     OW16735   4.032   1.145   1.352  0.1654 -0.3455 -0.4248
 4914SOL    HW116736   3.987   1.123   1.271  0.6739 -2.6435 -0.1719
 4914SOL    HW216737   4.075   1.063   1.378  0.8487  0.5919  1.6302
 4915SOL     OW16738   5.471   2.343   8.891 -0.0618 -0.3979  1.0307
 4915SOL    HW116739   5.423   2.260   8.892  0.2001 -0.6319 -1.3633
 4915SOL    HW216740   5.495   2.356   8.800  3.4024  0.3425  1.9141
 4916SOL     OW16741   8.299   3.886   5.186  0.3095 -0.2593 -0.7407
 4916SOL    HW116742   8.366   3.825   5.215  2.4740  3.0959  2.1887
 4916SOL    HW216743   8.232   3.882   5.254 -0.2124 -0.3624 -1.2604
 4917SOL     OW16744   0.994   5.124   7.287  0.1654 -0.0463  0.3145
 4917SOL    HW116745   0.960   5.199   7.336  0.7518  1.3830 -1.3838
 4917SOL    HW216746   0.920   5.094   7.234  0.5602  0.8617 -0.7783
 4918SOL     OW16747   4.585   5.301   7.604  0.3125  0.1381 -0.6370
 4918SOL    HW116748   4.651   5.363   7.574 -2.2334  2.3811 -2.0934
 4918SOL    HW216749   4.525   5.292   7.529 -2.0164 -0.3015  1.1674
 4919SOL     OW16750   2.568   1.327   6.558  0.1147 -0.4037  0.0560
 4919SOL    HW116751   2.507   1.339   6.485  0.3361 -1.4524 -0.3168
 4919SOL    HW216752   2.654   1.342   6.519  0.0766  3.6439  1.1072
 4920SOL     OW16753   8.187   8.796   0.770  0.2874  0.0414  0.0339
 4920SOL    HW116754   8.281   8.787   0.752  0.4067 -0.8340  0.9881
 4920SOL    HW216755   8.171   8.734   0.841 -1.3422 -0.9811 -1.1693
 4921SOL     OW16756   0.529   7.277   8.798  0.6026 -0.2443  0.0864
 4921SOL    HW116757   0.582   7.322   8.865  1.5699  0.0190 -0.8237
 4921SOL    HW216758   0.440   7.309   8.812  1.0598  1.0250  0.2538
 4922SOL     OW16759   3.418   6.758   0.621  0.6522 -0.0669 -0.0030
 4922SOL    HW116760   3.417   6.849   0.648 -0.7522 -0.3619  1.0398
 4922SOL    HW216761   3.455   6.711   0.696  0.5697 -0.4397 -0.1934
 4923SOL     OW16762   2.468   5.613   2.442 -0.1395  0.2809 -0.3108
 4923SOL    HW116763   2.471   5.664   2.523 -1.1590 -0.0372 -0.0622
 4923SOL    HW216764   2.553   5.571   2.436  0.7055  1.9246 -0.4687
 4924SOL     OW16765   5.563   2.192   5.067  0.2949  0.0040  0.0356
 4924SOL    HW116766   5.577   2.110   5.020 -1.1525 -0.3886  0.2550
 4924SOL    HW216767   5.493   2.236   5.018  1.2629  1.2799 -0.2707
 4925SOL     OW16768   1.861   4.380   7.511 -0.3194  0.4655 -0.0742
 4925SOL    HW116769   1.926   4.349   7.448  0.8278  2.2380  0.1532
 4925SOL    HW216770   1.807   4.441   7.462 -0.7026  0.3279  0.1720
 4926SOL     OW16771   8.498   2.744   7.520 -0.4058  0.5833 -0.0486
 4926SOL    HW116772   8.470   2.835   7.530 -0.7675  0.4925 -0.2173
 4926SOL    HW216773   8.444   2.696   7.583  1.3563  0.7694  1.7163
 4927SOL     OW16774   1.654   2.152   4.083  0.5144  0.3530 -0.0193
 4927SOL    HW116775   1.585   2.128   4.144  0.1806  0.5298 -0.3261
 4927SOL    HW216776   1.608   2.180   4.004  0.9487 -0.3025 -0.5149
 4928SOL     OW16777   5.448   3.399   4.591 -0.3748 -0.0942  0.2125
 4928SOL    HW116778   5.541   3.393   4.613 -0.5352 -1.6718  0.5932
 4928SOL    HW216779   5.431   3.321   4.537 -1.0972  1.1082 -1.3930
 4929SOL     OW16780   3.036   1.463   6.656 -0.0582 -0.2602  0.2868
 4929SOL    HW116781   3.115   1.452   6.708 -0.6882 -2.3734  0.8914
 4929SOL    HW216782   3.066   1.459   6.565  0.5590 -0.7628  0.5090
 4930SOL     OW16783   0.462   4.620   0.209  0.1032  0.4022 -0.3784
 4930SOL    HW116784   0.427   4.663   0.287  0.3748  0.4095 -0.2616
 4930SOL    HW216785   0.488   4.533   0.240 -0.7960  0.0075 -0.6906
 4931SOL     OW16786   8.709   4.379   5.162  0.3199  0.3537  0.1687
 4931SOL    HW116787   8.733   4.415   5.248  0.0652  0.9816 -0.0152
 4931SOL    HW216788   8.616   4.361   5.169  0.1213  1.1565 -0.2182
 4932SOL     OW16789   5.363   4.398   5.776 -0.0006 -0.0667  0.2978
 4932SOL    HW116790   5.429   4.436   5.835  1.0333 -2.1884  0.5955
 4932SOL    HW216791   5.393   4.308   5.761 -1.7486 -0.4509 -1.2426
 4933SOL     OW16792   5.472   2.915   3.584 -0.2882  0.8387  0.5794
 4933SOL    HW116793   5.469   2.903   3.489  0.1632  1.7140  0.4387
 4933SOL    HW216794   5.557   2.957   3.600  0.1236 -0.2953  1.4986
 4934SOL     OW16795   2.309   8.810   4.292 -0.1891 -0.1775 -0.2888
 4934SOL    HW116796   2.363   8.815   4.213 -0.4756 -0.6556 -0.5141
 4934SOL    HW216797   2.320   8.721   4.324 -1.1375 -0.4005 -0.5484
 4935SOL     OW16798   6.137   3.696   0.655 -0.2862  0.1273 -0.0192
 4935SOL    HW116799   6.218   3.706   0.704 -0.8714  1.2275  0.7691
 4935SOL    HW216800   6.123   3.781   0.613 -0.1237 -0.5969 -1.6305
 4936SOL     OW16801   0.072   1.405   4.093 -0.5227 -0.7995  0.6545
 4936SOL    HW116802  -0.015   1.411   4.054 -1.0255 -0.2677  1.7950
 4936SOL    HW216803   0.105   1.495   4.093  0.7651 -1.2231 -1.3170
 4937SOL     OW16804   6.526   5.420   0.212  0.0831 -0.3616  0.4652
 4937SOL    HW116805   6.527   5.335   0.255 -1.0735 -1.8340 -2.2244
 4937SOL    HW216806   6.550   5.402   0.121  0.8848  2.3633  0.0416
 4938SOL     OW16807   3.188   1.566   4.234 -0.2593  0.3096 -0.3703
 4938SOL    HW116808   3.124   1.495   4.247 -0.8889  0.9549  0.1866
 4938SOL    HW216809   3.248   1.533   4.168  0.0886 -1.1677  0.6417
 4939SOL     OW16810   4.280   8.812   7.918 -0.4757  0.2851 -0.1527
 4939SOL    HW116811   4.254   8.791   8.008 -0.0540  2.0759  0.4407
 4939SOL    HW216812   4.198   8.830   7.872 -0.5909  3.0643  0.9366
 4940SOL     OW16813   4.776   4.990   6.695 -0.4723  0.1334 -0.0621
 4940SOL    HW116814   4.702   4.990   6.635 -2.1881 -1.5715  1.8786
 4940SOL    HW216815   4.839   4.930   6.656 -0.5701  0.7600 -1.2159
 4941SOL     OW16816   1.235   4.898   0.793  0.5686 -0.2881 -0.3245
 4941SOL    HW116817   1.151   4.855   0.811  0.1445  1.4327  2.3208
 4941SOL    HW216818   1.211   4.982   0.752  0.9797  0.1980  0.4070
 4942SOL     OW16819   5.789   7.382   5.202  0.0190  0.1021 -0.0328
 4942SOL    HW116820   5.708   7.386   5.151 -0.0135  0.9757  0.0822
 4942SOL    HW216821   5.804   7.472   5.230  1.6076  0.1603 -0.9700
 4943SOL     OW16822   1.589   7.181   3.473 -0.5260 -0.4572  0.0342
 4943SOL    HW116823   1.634   7.110   3.518  1.4477  0.7942  0.2009
 4943SOL    HW216824   1.554   7.236   3.543  0.8473  0.4499  0.0523
 4944SOL     OW16825   3.536   0.661   5.933  0.3956 -0.3701 -0.1127
 4944SOL    HW116826   3.599   0.631   5.868 -0.0680  0.3329 -0.8978
 4944SOL    HW216827   3.479   0.585   5.947 -0.3325 -0.1208 -1.5476
 4945SOL     OW16828   7.706   2.128   6.653 -0.8649 -0.2119 -0.1242
 4945SOL    HW116829   7.731   2.190   6.584  0.7244 -2.4057 -1.6484
 4945SOL    HW216830   7.612   2.142   6.665 -0.2156  4.3600  1.6621
 4946SOL     OW16831   2.862   5.193   0.570 -0.0573 -0.1566  0.4238
 4946SOL    HW116832   2.925   5.128   0.538 -0.6841 -0.8367  0.5546
 4946SOL    HW216833   2.852   5.254   0.497 -1.0059 -1.3458 -0.4857
 4947SOL     OW16834   1.610   8.385   2.334 -0.2634  0.2749 -0.1191
 4947SOL    HW116835   1.667   8.313   2.307 -2.7119 -0.9513 -2.4483
 4947SOL    HW216836   1.604   8.377   2.429  0.4353 -1.8912 -0.2110
 4948SOL     OW16837   4.903   4.033   7.472  0.5371  0.2158  0.4968
 4948SOL    HW116838   4.980   3.994   7.430 -0.6439  0.0802 -1.6605
 4948SOL    HW216839   4.930   4.123   7.494  1.2848  0.1983 -0.3206
 4949SOL     OW16840   1.947   8.358   1.222 -0.2431  0.2502  0.5493
 4949SOL    HW116841   1.883   8.324   1.160 -0.3617  1.4772 -0.0298
 4949SOL    HW216842   2.030   8.320   1.194 -0.5162 -0.3056  0.4980
 4950SOL     OW16843   8.714   3.556   2.832  0.1920  0.3993  0.1292
 4950SOL    HW116844   8.729   3.501   2.909 -2.0067 -0.4079  0.0548
 4950SOL    HW216845   8.782   3.531   2.770 -0.2061 -1.5880  0.4504
 4951SOL     OW16846   6.546   3.070   2.594  0.5963  0.3511  0.0784
 4951SOL    HW116847   6.487   3.126   2.545  1.0062  0.2079 -0.5818
 4951SOL    HW216848   6.489   3.020   2.652  0.3527  2.9946  2.3400
 4952SOL     OW16849   1.239   8.813   1.610  0.8081 -0.5143  0.3781
 4952SOL    HW116850   1.321   8.773   1.582  1.3711 -0.3725  1.7747
 4952SOL    HW216851   1.238   8.803   1.705 -0.9421 -0.7900  0.3642
 4953SOL     OW16852   5.415   2.777   5.188  0.9295 -0.0157 -0.0288
 4953SOL    HW116853   5.407   2.687   5.157 -0.2754  1.1219 -3.4295
 4953SOL    HW216854   5.508   2.798   5.179  0.9199 -0.3632 -0.9662
 4954SOL     OW16855   7.986   6.937   1.020 -0.3293  0.1574 -1.1182
 4954SOL    HW116856   7.949   7.018   1.055  0.5056  0.8643 -1.8408
 4954SOL    HW216857   7.915   6.898   0.970 -1.0135 -0.0174 -0.0474
 4955SOL     OW16858   5.778   1.952   6.947  0.2139  0.3083 -0.4442
 4955SOL    HW116859   5.790   1.998   7.030 -0.9901  1.1313 -0.7123
 4955SOL    HW216860   5.787   2.019   6.880 -1.3033  0.1606 -0.8462
 4956SOL     OW16861   7.647   5.977   0.183  0.4339 -0.2050 -0.0495
 4956SOL    HW116862   7.650   5.882   0.179 -0.5331 -0.2315 -0.5792
 4956SOL    HW216863   7.563   6.000   0.143  1.6377  0.9936 -2.0922
 4957SOL     OW16864   6.170   3.589   7.176  0.2279  0.4786 -0.4116
 4957SOL    HW116865   6.200   3.559   7.090 -2.2120  2.0110 -1.9437
 4957SOL    HW216866   6.135   3.511   7.218 -0.7306  0.0870 -1.8650
 4958SOL     OW16867   6.911   5.120   5.497 -0.4887 -0.2043  0.1764
 4958SOL    HW116868   6.958   5.177   5.436 -1.5021  0.4166 -0.0433
 4958SOL    HW216869   6.819   5.133   5.476 -0.7518 -1.9804  0.0830
 4959SOL     OW16870   6.370   6.900   4.646  0.4924  0.0515  0.1931
 4959SOL    HW116871   6.436   6.928   4.709  0.0808 -1.5516  1.4042
 4959SOL    HW216872   6.418   6.845   4.584  0.3541 -1.1381  1.0899
 4960SOL     OW16873   7.493   4.469   6.293 -0.9597 -0.1170 -0.6999
 4960SOL    HW116874   7.443   4.393   6.322 -3.5864  1.8312  0.2400
 4960SOL    HW216875   7.457   4.489   6.206 -0.5036  0.2322 -0.8135
 4961SOL     OW16876   2.294   7.894   1.051  0.7067 -0.0069 -0.0066
 4961SOL    HW116877   2.259   7.976   1.017 -0.3231 -0.0863  0.8255
 4961SOL    HW216878   2.217   7.841   1.072  1.3263 -0.5372  1.0072
 4962SOL     OW16879   7.681   1.121   6.127  0.4478 -0.3542  0.2878
 4962SOL    HW116880   7.756   1.177   6.148  0.7888 -0.7765  0.2148
 4962SOL    HW216881   7.720   1.036   6.105 -0.0936 -0.7936  0.9701
 4963SOL     OW16882   1.336   7.410   2.413  1.3773 -0.2859 -0.0322
 4963SOL    HW116883   1.329   7.339   2.349  1.1638 -0.3263  0.0353
 4963SOL    HW216884   1.266   7.471   2.390  1.0940 -0.4611  0.3609
 4964SOL     OW16885   7.090   0.541   6.285  0.5760 -0.0426 -0.1060
 4964SOL    HW116886   7.113   0.453   6.314 -2.0274 -0.3373  1.4245
 4964SOL    HW216887   7.171   0.577   6.250  1.9811 -2.6346  0.2353
 4965SOL     OW16888   3.042   6.745   4.678  0.3464 -0.7315  0.6261
 4965SOL    HW116889   3.091   6.738   4.760  1.8460 -0.0548 -0.1545
 4965SOL    HW216890   3.095   6.804   4.624 -1.2615 -0.1110 -0.3583
 4966SOL     OW16891   8.679   2.709   5.009 -0.4700  0.7381 -0.7334
 4966SOL    HW116892   8.714   2.679   5.093  0.6133  0.8860 -1.1179
 4966SOL    HW216893   8.609   2.770   5.033 -1.4612 -0.6541  0.0465
 4967SOL     OW16894   4.224   3.081   1.137  0.7120  0.1418  0.6290
 4967SOL    HW116895   4.279   3.156   1.158  1.2024 -0.2702  0.8255
 4967SOL    HW216896   4.257   3.010   1.193  1.8099 -0.8804 -1.2177
 4968SOL     OW16897   8.033   0.751   0.304 -0.0637 -0.3377 -0.6478
 4968SOL    HW116898   8.004   0.692   0.235 -0.5324  0.6605 -1.3238
 4968SOL    HW216899   8.128   0.745   0.302 -0.1012 -0.9100 -0.8435
 4969SOL     OW16900   6.204   6.750   6.519  0.2376 -0.0229  0.3623
 4969SOL    HW116901   6.292   6.772   6.552  0.4854  0.7401 -0.7497
 4969SOL    HW216902   6.147   6.818   6.555  0.6233  1.2233 -1.2312
 4970SOL     OW16903   1.251   3.647   0.710  0.0493 -0.5876  0.1337
 4970SOL    HW116904   1.218   3.672   0.623 -0.2558 -0.7123  0.2106
 4970SOL    HW216905   1.306   3.720   0.737 -0.2863 -0.3100  0.0653
 4971SOL     OW16906   8.774   8.122   7.101 -0.1408 -0.1045  0.2938
 4971SOL    HW116907   8.728   8.062   7.042  1.6850 -1.6665  0.3571
 4971SOL    HW216908   8.865   8.121   7.070  0.3772  0.9484  1.6584
 4972SOL     OW16909   7.220   6.531   1.425  0.4379 -0.1865 -0.1551
 4972SOL    HW116910   7.254   6.561   1.340 -0.0012  1.3453  0.1758
 4972SOL    HW216911   7.157   6.463   1.403 -0.3248  0.8053 -1.1346
 4973SOL     OW16912   5.847   6.241   1.995  0.2450  0.0495 -0.2274
 4973SOL    HW116913   5.846   6.210   1.904  2.2553  2.1948 -1.1172
 4973SOL    HW216914   5.937   6.224   2.025 -0.1278  0.2086  1.0263
 4974SOL     OW16915   2.253   7.530   5.014  0.5345 -0.3095  0.4047
 4974SOL    HW116916   2.273   7.533   4.920  0.8311  0.1632  0.4819
 4974SOL    HW216917   2.162   7.502   5.017  0.9538 -1.8059  0.0238
 4975SOL     OW16918   1.661   5.773   4.818 -0.1793  0.1975 -0.2632
 4975SOL    HW116919   1.611   5.704   4.863 -0.1876  0.6232  0.3976
 4975SOL    HW216920   1.726   5.725   4.766 -1.2454 -0.3607 -1.1195
 4976SOL     OW16921   6.722   8.867   8.320 -0.2409 -0.3631 -0.0627
 4976SOL    HW116922   6.697   8.804   8.388 -0.5806  0.1348  0.2796
 4976SOL    HW216923   6.745   8.946   8.368  2.0683 -0.7853 -0.3495
 4977SOL     OW16924   0.867   1.279   3.595  0.1355  0.5067  0.4682
 4977SOL    HW116925   0.864   1.341   3.668  1.0905  0.2537  0.7374
 4977SOL    HW216926   0.950   1.233   3.606 -0.7078 -1.0867  0.4854
 4978SOL     OW16927   0.480   2.911   5.229 -0.2908 -0.5282 -0.1090
 4978SOL    HW116928   0.465   2.945   5.141 -0.2871  0.5970  0.3030
 4978SOL    HW216929   0.554   2.852   5.220 -0.0273 -0.1054 -0.7943
 4979SOL     OW16930   4.773   1.459   1.330 -0.4374  0.4321 -0.1675
 4979SOL    HW116931   4.773   1.393   1.399 -1.8360  0.2002 -0.3480
 4979SOL    HW216932   4.739   1.413   1.253  0.2650  0.9167 -0.7790
 4980SOL     OW16933   4.612   1.263   0.300  0.9752 -0.0930  0.2988
 4980SOL    HW116934   4.562   1.309   0.232  0.3580 -2.0557 -0.6602
 4980SOL    HW216935   4.611   1.171   0.272  2.2451 -0.6939  2.0551
 4981SOL     OW16936   7.230   2.169   0.707  0.6541 -0.5261  0.5376
 4981SOL    HW116937   7.252   2.243   0.650  1.0907 -0.8755  0.2379
 4981SOL    HW216938   7.245   2.202   0.796 -1.9972  0.6785  0.6087
 4982SOL     OW16939   2.708   7.598   0.263  0.0341  0.2628 -0.4785
 4982SOL    HW116940   2.718   7.561   0.175 -0.7935  1.3091 -1.0293
 4982SOL    HW216941   2.771   7.669   0.266  0.5065 -0.1709  0.0123
 4983SOL     OW16942   5.713   3.689   7.103  0.0238  0.3282 -0.1110
 4983SOL    HW116943   5.799   3.730   7.098  0.2648 -0.1154  0.2934
 4983SOL    HW216944   5.730   3.595   7.102 -0.5538  0.2123 -1.4522
 4984SOL     OW16945   0.929   3.876   3.795  0.0433  0.1063  0.0616
 4984SOL    HW116946   1.011   3.860   3.842  0.3120  0.0194 -0.4324
 4984SOL    HW216947   0.861   3.852   3.858  0.3906  0.3244  0.5276
 4985SOL     OW16948   3.650   3.279   1.269 -0.1692  0.0747 -0.3931
 4985SOL    HW116949   3.586   3.349   1.282  0.0792 -0.0441  1.9410
 4985SOL    HW216950   3.629   3.215   1.337  0.3165 -1.6120 -1.7676
 4986SOL     OW16951   0.118   4.253   4.386  0.4307  0.0788  0.0397
 4986SOL    HW116952   0.056   4.290   4.323  1.6104 -0.9425 -1.8001
 4986SOL    HW216953   0.191   4.315   4.388  1.2869 -0.8466 -1.1546
 4987SOL     OW16954   6.224   6.009   7.972 -0.1460 -0.1646  0.0841
 4987SOL    HW116955   6.296   6.063   8.002 -0.2518  0.9337 -1.4863
 4987SOL    HW216956   6.149   6.069   7.968 -0.8644 -1.0001  0.5482
 4988SOL     OW16957   7.526   3.461   5.912 -0.2175 -0.1694  0.1363
 4988SOL    HW116958   7.521   3.412   5.830 -0.2616  0.4540 -0.2366
 4988SOL    HW216959   7.438   3.454   5.949 -0.4399  0.2509 -0.2889
 4989SOL     OW16960   8.031   2.047   3.209  0.0406  0.0349 -0.3989
 4989SOL    HW116961   8.119   2.014   3.229 -0.1496 -0.3526 -0.1944
 4989SOL    HW216962   8.039   2.087   3.123  0.0382 -1.4328 -1.1030
 4990SOL     OW16963   8.563   6.402   3.077 -0.4258  0.4687  0.5055
 4990SOL    HW116964   8.523   6.437   2.997 -1.8716  0.2140  1.0950
 4990SOL    HW216965   8.624   6.471   3.104 -1.8660  1.7591  0.6263
 4991SOL     OW16966   4.264   8.231   7.562 -0.4475 -0.2671  0.3231
 4991SOL    HW116967   4.330   8.291   7.595 -1.4305  1.4558 -0.6848
 4991SOL    HW216968   4.314   8.154   7.535  1.1101  0.8075 -0.0229
 4992SOL     OW16969   8.016   0.259   7.743 -0.4693  0.5858  0.4501
 4992SOL    HW116970   8.057   0.322   7.803  0.0364  0.7995 -0.1057
 4992SOL    HW216971   8.060   0.176   7.761  0.3456  0.8477 -0.2548
 4993SOL     OW16972   0.577   0.585   5.848  0.5630  0.1899 -0.5473
 4993SOL    HW116973   0.496   0.544   5.818  0.5450 -1.1005  1.0850
 4993SOL    HW216974   0.629   0.512   5.881  0.7143  1.3836  2.1342
 4994SOL     OW16975   1.225   0.797   5.036  0.0467  0.3767  0.3790
 4994SOL    HW116976   1.131   0.807   5.052 -0.3694  1.7755 -2.3598
 4994SOL    HW216977   1.239   0.702   5.035 -1.0781  0.1491  1.8257
 4995SOL     OW16978   7.001   6.423   7.320  0.6248 -0.1496  0.2767
 4995SOL    HW116979   7.038   6.335   7.310  3.8596  0.9152  1.5213
 4995SOL    HW216980   7.009   6.441   7.414 -1.0347  1.0680  0.2117
 4996SOL     OW16981   1.511   0.901   6.915 -0.2524  0.5524  0.6249
 4996SOL    HW116982   1.497   0.854   6.833 -1.5196  1.4519  0.2827
 4996SOL    HW216983   1.565   0.977   6.890 -0.4961  0.7346  0.6448
 4997SOL     OW16984   2.004   2.307   2.240 -0.2246  0.1340 -0.1785
 4997SOL    HW116985   1.958   2.228   2.268 -0.3972  0.1014 -0.5499
 4997SOL    HW216986   2.033   2.348   2.322  2.2439 -1.7250  0.0024
 4998SOL     OW16987   2.847   2.551   6.365 -0.1488  0.1501  0.5565
 4998SOL    HW116988   2.798   2.633   6.360 -0.0967  0.1279 -0.5644
 4998SOL    HW216989   2.781   2.483   6.347  0.4423  0.1840 -2.0412
 4999SOL     OW16990   0.130   4.237   6.384 -0.5212 -0.0071 -0.6908
 4999SOL    HW116991   0.214   4.277   6.358 -0.6130 -0.3348 -1.4881
 4999SOL    HW216992   0.064   4.284   6.333 -0.6200 -1.2650 -1.7699
 5000SOL     OW16993   3.440   5.308   1.162  0.5095 -0.0922  0.4209
 5000SOL    HW116994   3.350   5.337   1.151 -0.6248 -3.5015 -0.6126
 5000SOL    HW216995   3.449   5.233   1.103  3.6631 -0.6490  1.3785
 5001SOL     OW16996   6.587   0.347   2.820 -0.0340 -0.2274 -0.7300
 5001SOL    HW116997   6.621   0.428   2.858  0.4795 -0.4344 -0.7401
 5001SOL    HW216998   6.531   0.376   2.748 -1.3181  0.1886  0.3779
 5002SOL     OW16999   7.338   3.410   6.806 -0.2502 -0.1788 -0.4766
 5002SOL    HW117000   7.432   3.400   6.819 -0.0241 -0.6566 -2.2203
 5002SOL    HW217001   7.313   3.334   6.753 -1.7656 -0.4555  0.5632
 5003SOL     OW17002   3.061   7.334   2.042  0.0853 -0.0883 -0.0252
 5003SOL    HW117003   3.144   7.357   1.999  0.3857 -1.2469 -0.0988
 5003SOL    HW217004   3.012   7.415   2.043  0.6644  0.3100 -1.2633
 5004SOL     OW17005   0.026   2.388   5.970  0.1975  0.1164 -0.0860
 5004SOL    HW117006   0.112   2.362   5.935  0.1761 -0.6423  0.4137
 5004SOL    HW217007   0.003   2.465   5.919  1.1318  0.2702 -0.3004
 5005SOL     OW17008   6.539   1.894   6.339 -0.2882 -0.1098  0.1477
 5005SOL    HW117009   6.444   1.893   6.328 -0.5135  1.2586  1.5881
 5005SOL    HW217010   6.561   1.987   6.347  0.8644 -0.5019  2.0676
 5006SOL     OW17011   8.078   4.963   4.595 -1.0951  0.0368 -0.4088
 5006SOL    HW117012   8.090   5.056   4.618  1.3922 -0.6136  1.3765
 5006SOL    HW217013   8.096   4.960   4.501  3.5438  0.8873  0.2038
 5007SOL     OW17014   3.770   0.056   6.073 -0.1193 -0.1271 -0.4817
 5007SOL    HW117015   3.829   0.031   6.002  0.8038 -0.0626  0.2484
 5007SOL    HW217016   3.710  -0.018   6.081 -0.2855 -0.0979 -1.3760
 5008SOL     OW17017   2.601   2.180   5.338 -0.5065  0.6066  0.1992
 5008SOL    HW117018   2.557   2.097   5.354 -0.3422  0.9428  2.9075
 5008SOL    HW217019   2.538   2.231   5.285 -1.6398 -0.3583  0.5794
 5009SOL     OW17020   1.912   8.584   1.379 -0.5567  0.1875  0.4665
 5009SOL    HW117021   1.925   8.499   1.336  1.8552 -0.1541  1.7093
 5009SOL    HW217022   1.820   8.583   1.405 -0.5484 -2.2039  0.6789
 5010SOL     OW17023   3.772   8.772   8.651  0.1316  0.3001 -0.5660
 5010SOL    HW117024   3.696   8.713   8.645 -0.6865  1.3088 -0.3868
 5010SOL    HW217025   3.830   8.729   8.714 -0.7472 -0.0111  0.0542
 5011SOL     OW17026   5.400   7.332   1.968 -0.2053  0.2704 -0.2159
 5011SOL    HW117027   5.336   7.304   2.035  0.7118 -0.8630  0.2181
 5011SOL    HW217028   5.416   7.253   1.916  0.9293  0.5101 -0.2461
 5012SOL     OW17029   2.654   5.658   6.555 -0.1621  0.0116 -0.3316
 5012SOL    HW117030   2.673   5.744   6.517 -0.0808 -0.1498 -0.6632
 5012SOL    HW217031   2.716   5.599   6.513  1.0707  0.0998  1.2926
 5013SOL     OW17032   3.760   1.579   6.413  0.5191  0.1748  0.1956
 5013SOL    HW117033   3.743   1.674   6.409  1.9170  0.4168 -0.5445
 5013SOL    HW217034   3.821   1.568   6.486  0.1624 -0.1964  0.4419
 5014SOL     OW17035   7.516   4.420   5.669  0.1225  0.1642  0.6554
 5014SOL    HW117036   7.553   4.393   5.754 -0.8479 -2.9978  0.2053
 5014SOL    HW217037   7.591   4.419   5.609  0.3562 -0.2475  0.9488
 5015SOL     OW17038   5.198   3.586   8.539 -0.9404 -0.4062 -0.4907
 5015SOL    HW117039   5.237   3.510   8.582  0.5857  0.3659 -0.4490
 5015SOL    HW217040   5.270   3.626   8.491 -2.0910  0.0943 -1.8595
 5016SOL     OW17041   2.626   8.472   2.593  0.8204  0.7464  0.0157
 5016SOL    HW117042   2.677   8.391   2.584 -1.2048 -0.6555  0.4331
 5016SOL    HW217043   2.610   8.478   2.688 -2.7788 -0.9414 -0.3051
 5017SOL     OW17044   6.858   7.598   1.349 -0.0901  0.1118  0.4495
 5017SOL    HW117045   6.806   7.558   1.279  0.9047  2.1152 -1.5734
 5017SOL    HW217046   6.794   7.637   1.407 -0.9223 -0.0942 -0.3073
 5018SOL     OW17047   0.080   7.508   1.159 -0.3929 -0.1845  0.5846
 5018SOL    HW117048   0.011   7.461   1.112 -1.0034 -0.0362  1.3001
 5018SOL    HW217049   0.106   7.449   1.229  0.8181 -0.5820 -0.1602
 5019SOL     OW17050   4.208   5.700   4.460 -0.3204  0.4028 -0.2828
 5019SOL    HW117051   4.266   5.662   4.526 -0.4215  2.2555  0.9488
 5019SOL    HW217052   4.146   5.630   4.439  1.1257 -0.9715 -0.1613
 5020SOL     OW17053   4.209   7.761   2.032  0.2220  0.1025  0.6810
 5020SOL    HW117054   4.123   7.726   2.053  1.1766 -1.7515  1.8486
 5020SOL    HW217055   4.239   7.800   2.114  1.1329 -0.7783  0.7899
 5021SOL     OW17056   0.328   7.524   0.911 -0.4793 -0.7154  0.8478
 5021SOL    HW117057   0.235   7.525   0.932 -0.6452  0.8491  0.1864
 5021SOL    HW217058   0.373   7.521   0.995 -1.1380  1.0544  1.3000
 5022SOL     OW17059   0.157   2.810   5.615 -0.3202 -0.2551  0.5515
 5022SOL    HW117060   0.166   2.870   5.689  0.3100 -2.5874  2.4902
 5022SOL    HW217061   0.209   2.734   5.640  0.2925 -0.9728 -2.5346
 5023SOL     OW17062   1.658   3.159   8.637 -0.0947  0.1421 -0.3189
 5023SOL    HW117063   1.679   3.196   8.723 -0.9811  1.3139 -0.5839
 5023SOL    HW217064   1.734   3.181   8.583 -0.5661  1.5321 -0.4432
 5024SOL     OW17065   3.648   2.818   7.392 -0.1795 -0.1969 -0.5180
 5024SOL    HW117066   3.607   2.881   7.332  0.8672 -0.2379 -1.3060
 5024SOL    HW217067   3.587   2.745   7.396 -1.0047  0.4835 -0.2774
 5025SOL     OW17068   5.588   6.043   7.312  0.1885 -0.6116  0.2810
 5025SOL    HW117069   5.636   5.989   7.249 -0.5993  0.2655 -1.1228
 5025SOL    HW217070   5.496   6.026   7.292 -0.0673  0.2946  0.6604
 5026SOL     OW17071   0.342   2.716   6.869  0.0511 -0.3371  0.0112
 5026SOL    HW117072   0.304   2.802   6.852  0.4395  0.2432  1.7898
 5026SOL    HW217073   0.399   2.699   6.794 -0.2309  0.8363 -0.4907
 5027SOL     OW17074   1.807   0.015   7.752 -0.0448  0.1698  0.1312
 5027SOL    HW117075   1.835  -0.056   7.809  1.0635 -0.4802 -1.1652
 5027SOL    HW217076   1.810  -0.022   7.664 -4.3650  0.2554 -0.2662
 5028SOL     OW17077   3.287   0.668   0.113  0.3019 -0.5879  0.5565
 5028SOL    HW117078   3.317   0.727   0.043  0.7681 -0.6102  0.7358
 5028SOL    HW217079   3.192   0.675   0.110  0.3474  0.3522  0.7199
 5029SOL     OW17080   1.390   0.423   7.929 -0.0158 -0.3382 -0.1997
 5029SOL    HW117081   1.388   0.426   8.025  1.0436 -0.0373 -0.1768
 5029SOL    HW217082   1.466   0.476   7.905 -1.5567  1.5097 -1.2917
 5030SOL     OW17083   2.214   2.092   6.232  0.4890  0.1185  0.5111
 5030SOL    HW117084   2.155   2.127   6.298  0.6647  0.3099  0.5676
 5030SOL    HW217085   2.182   2.003   6.216  0.0475  0.3002  0.3748
 5031SOL     OW17086   8.330   7.831   1.714 -0.1644 -0.2685  0.5828
 5031SOL    HW117087   8.425   7.844   1.717 -0.1855 -0.1127  0.6228
 5031SOL    HW217088   8.309   7.791   1.798 -0.2955  0.8388  1.1025
 5032SOL     OW17089   7.623   7.677   1.429 -0.2753  0.0211  0.0436
 5032SOL    HW117090   7.535   7.690   1.465 -0.2599  0.0277  0.0784
 5032SOL    HW217091   7.657   7.765   1.414 -0.0273  0.0327  0.6292
 5033SOL     OW17092   1.587   7.129   0.372 -0.6923  0.3800 -0.0178
 5033SOL    HW117093   1.548   7.042   0.376 -1.5512  0.6330 -1.8427
 5033SOL    HW217094   1.646   7.126   0.296 -1.5920  1.6749 -0.8224
 5034SOL     OW17095   7.341   4.554   1.437  0.0147  0.1503  0.1016
 5034SOL    HW117096   7.411   4.594   1.385 -0.8121 -0.9328 -1.9425
 5034SOL    HW217097   7.381   4.476   1.475  0.0334 -0.2920 -0.8001
 5035SOL     OW17098   1.533   2.641   5.088  0.5690 -0.4859  0.2929
 5035SOL    HW117099   1.613   2.623   5.038  0.0328 -1.7136 -0.1478
 5035SOL    HW217100   1.498   2.555   5.111  0.5532  0.0409  2.4472
 5036SOL     OW17101   3.538   8.541   0.952 -0.4119  0.8997 -0.3780
 5036SOL    HW117102   3.573   8.590   0.878  0.5915 -0.6251 -0.9545
 5036SOL    HW217103   3.613   8.527   1.010 -0.3649 -1.0290 -0.8531
 5037SOL     OW17104   3.552   4.014   8.060 -0.1341 -0.1751  0.1770
 5037SOL    HW117105   3.476   3.996   8.115 -0.0698 -1.3942 -0.1089
 5037SOL    HW217106   3.518   4.061   7.984 -0.9717 -2.5928 -1.0158
 5038SOL     OW17107   4.807   6.048   1.523  0.7946  0.0352  0.2472
 5038SOL    HW117108   4.847   6.112   1.581  0.3711  0.8073 -0.2945
 5038SOL    HW217109   4.794   6.095   1.440  2.0102 -1.2321 -0.7085
 5039SOL     OW17110   1.946   5.868   8.675 -0.3394 -0.0613 -0.0912
 5039SOL    HW117111   2.020   5.848   8.619 -0.1411  1.1569 -0.2807
 5039SOL    HW217112   1.983   5.872   8.763 -0.3489 -0.3452 -0.0733
 5040SOL     OW17113   6.381   6.513   6.423  0.5074  0.5220 -0.7006
 5040SOL    HW117114   6.359   6.596   6.465  0.0250  0.8322 -1.5448
 5040SOL    HW217115   6.337   6.446   6.475  0.5870  0.8325 -0.2386
 5041SOL     OW17116   7.550   7.253   6.064  0.0533 -0.3847  0.2982
 5041SOL    HW117117   7.491   7.296   6.002  0.9317 -0.8822 -0.9265
 5041SOL    HW217118   7.506   7.172   6.088 -0.2886 -0.1895  0.3331
 5042SOL     OW17119   1.353   0.491   4.578  0.4623  0.0352 -0.8387
 5042SOL    HW117120   1.299   0.436   4.635  0.3659  1.3470  0.3683
 5042SOL    HW217121   1.434   0.441   4.566  1.2574  0.4761  1.9794
 5043SOL     OW17122   6.426   1.182   0.365 -0.2205 -1.1377 -0.1612
 5043SOL    HW117123   6.363   1.171   0.436  1.2833  1.2097  1.6888
 5043SOL    HW217124   6.380   1.151   0.287 -3.7147  0.4787  1.0584
 5044SOL     OW17125   3.952   1.611   7.433  0.4124 -0.6255  0.1240
 5044SOL    HW117126   3.973   1.539   7.491  1.2029 -1.3753 -1.0349
 5044SOL    HW217127   3.899   1.572   7.363 -0.0687  0.1373  0.0496
 5045SOL     OW17128   8.486   0.399   3.050  0.0791 -0.3514  0.1281
 5045SOL    HW117129   8.575   0.421   3.024  0.2024  0.5474  1.2367
 5045SOL    HW217130   8.453   0.479   3.090 -1.9099 -0.0016 -1.9571
 5046SOL     OW17131   2.233   2.428   4.986 -0.2446 -0.8417  0.4508
 5046SOL    HW117132   2.239   2.407   4.893 -0.1498  0.5762  0.1130
 5046SOL    HW217133   2.197   2.349   5.026  0.0946 -1.6227 -0.7232
 5047SOL     OW17134   8.148   6.297   2.092  0.0381 -0.3607  0.4349
 5047SOL    HW117135   8.148   6.295   1.996  2.5257 -1.1949  0.3935
 5047SOL    HW217136   8.058   6.323   2.115 -1.3218 -2.3935 -2.0515
 5048SOL     OW17137   1.633   4.095   0.254  0.3472 -0.7403  0.0594
 5048SOL    HW117138   1.657   4.071   0.344  0.1527 -0.0730  0.2985
 5048SOL    HW217139   1.686   4.172   0.235 -2.3606  1.5394  1.0440
 5049SOL     OW17140   3.496   1.302   4.892  0.2239  0.2678 -0.4438
 5049SOL    HW117141   3.559   1.230   4.882  0.0004 -0.0117  0.1243
 5049SOL    HW217142   3.519   1.342   4.976  0.3124  0.8298 -0.7333
 5050SOL     OW17143   8.739   6.450   3.320 -0.0679  0.6010  0.2488
 5050SOL    HW117144   8.803   6.518   3.298 -0.2128  1.0636  1.2342
 5050SOL    HW217145   8.709   6.472   3.408  1.0429 -1.6509  1.2526
 5051SOL     OW17146   2.126   6.711   5.263  0.4424  0.2206  0.3636
 5051SOL    HW117147   2.144   6.798   5.300  2.1041 -0.5476  1.4393
 5051SOL    HW217148   2.055   6.677   5.317 -2.0046  1.7991 -1.5969
 5052SOL     OW17149   0.302   8.471   1.951  0.0458  0.2141  0.1830
 5052SOL    HW117150   0.315   8.530   2.025 -0.6152 -0.2497  0.6815
 5052SOL    HW217151   0.258   8.395   1.989 -0.6907  0.1567 -0.7676
 5053SOL     OW17152   3.056   6.586   8.865 -0.0342  0.2570 -0.1286
 5053SOL    HW117153   2.986   6.525   8.841  0.2402 -0.2253  0.2764
 5053SOL    HW217154   3.033   6.667   8.821 -1.5275  0.4886  0.9877
 5054SOL     OW17155   1.662   1.469   8.083 -0.2115  0.2737 -0.6056
 5054SOL    HW117156   1.596   1.444   8.148 -0.1130 -0.8007 -0.9023
 5054SOL    HW217157   1.657   1.564   8.079 -2.6756  0.1548 -1.5959
 5055SOL     OW17158   4.423   7.972   1.609 -0.7145  0.2357 -0.1921
 5055SOL    HW117159   4.405   7.905   1.674  1.3325  1.1972  1.5143
 5055SOL    HW217160   4.398   8.054   1.652  0.9093  0.9178 -0.4667
 5056SOL     OW17161   0.243   2.741   7.148  0.1891 -0.1815  0.3248
 5056SOL    HW117162   0.263   2.714   7.058  0.7024 -2.4034  1.0486
 5056SOL    HW217163   0.190   2.820   7.137 -0.0832 -0.5904 -1.9352
 5057SOL     OW17164   5.819   3.153   5.430 -0.0678 -0.5092  0.0912
 5057SOL    HW117165   5.730   3.132   5.403  0.1606 -0.6367 -0.5795
 5057SOL    HW217166   5.842   3.230   5.377  0.7661 -1.3999 -0.8635
 5058SOL     OW17167   5.758   5.165   4.453 -0.1288  0.0753  0.1712
 5058SOL    HW117168   5.741   5.083   4.407  3.5081 -0.7584 -0.0500
 5058SOL    HW217169   5.777   5.138   4.543 -3.2620  1.2771  1.3274
 5059SOL     OW17170   1.615   0.665   5.276  0.7284  0.0378  0.7545
 5059SOL    HW117171   1.549   0.609   5.317 -0.0217 -1.1258 -1.7958
 5059SOL    HW217172   1.681   0.678   5.344  0.3115 -2.9200  1.8890
 5060SOL     OW17173   1.437   7.494   4.209  0.0211 -0.1952  0.4903
 5060SOL    HW117174   1.473   7.408   4.188 -0.7809 -0.6047  0.7416
 5060SOL    HW217175   1.415   7.532   4.124 -1.5844 -1.1286  0.4400
 5061SOL     OW17176   5.325   3.809   5.750 -0.2427  0.0528 -0.1431
 5061SOL    HW117177   5.375   3.872   5.698 -1.0181  1.3229  0.6063
 5061SOL    HW217178   5.270   3.763   5.686 -0.4685  0.9104 -0.5784
 5062SOL     OW17179   0.303   0.346   3.864 -0.3207  0.4715 -0.1793
 5062SOL    HW117180   0.355   0.364   3.786 -0.6825 -1.2292 -0.8609
 5062SOL    HW217181   0.274   0.432   3.894  0.7312  1.2493 -1.2689
 5063SOL     OW17182   1.050   3.069   2.756  0.1575 -0.5538  0.5489
 5063SOL    HW117183   0.955   3.066   2.763 -0.0103  2.2499  0.2421
 5063SOL    HW217184   1.072   3.162   2.761  2.8930 -1.1246  0.5802
 5064SOL     OW17185   7.436   5.911   7.555  0.3120 -0.0466 -0.3736
 5064SOL    HW117186   7.394   5.928   7.471  0.5263  0.3943 -0.3891
 5064SOL    HW217187   7.368   5.930   7.620 -0.2642 -1.5618 -0.4706
 5065SOL     OW17188   4.851   0.103   3.877 -0.2108 -0.3448 -0.6402
 5065SOL    HW117189   4.763   0.068   3.868 -0.1626 -1.0365  1.1711
 5065SOL    HW217190   4.856   0.174   3.812 -2.0286 -0.3978 -0.8755
 5066SOL     OW17191   5.736   1.991   1.942  0.2338  0.6788  0.0057
 5066SOL    HW117192   5.700   2.059   1.886  0.1502  0.3069 -0.3967
 5066SOL    HW217193   5.733   2.028   2.030  0.2751  1.2294 -0.2203
 5067SOL     OW17194   1.303   6.715   5.165  0.2042  0.4106  0.2276
 5067SOL    HW117195   1.344   6.761   5.238  1.6055  2.4998 -1.7488
 5067SOL    HW217196   1.322   6.623   5.180  1.7024  0.9267  1.7460
 5068SOL     OW17197   7.091   3.003   7.656 -0.0979  0.2562  0.6716
 5068SOL    HW117198   7.007   3.020   7.614 -0.0381  1.0681  0.8521
 5068SOL    HW217199   7.092   2.909   7.672 -0.5531  0.0945 -0.2127
 5069SOL     OW17200   8.115   3.817   4.248 -0.3158  0.8827 -0.1774
 5069SOL    HW117201   8.144   3.822   4.340 -0.6898  0.1900 -0.0097
 5069SOL    HW217202   8.167   3.746   4.211 -0.2909  1.0465 -0.4567
 5070SOL     OW17203   1.184   1.360   4.872  0.2665 -0.2085 -0.4836
 5070SOL    HW117204   1.257   1.314   4.831  0.6465 -0.2478  0.2163
 5070SOL    HW217205   1.205   1.360   4.966  0.7501  2.1623 -0.5097
 5071SOL     OW17206   5.581   1.025   4.784 -0.1337 -0.4658  0.2348
 5071SOL    HW117207   5.642   0.960   4.749  0.5684  0.3098 -0.0294
 5071SOL    HW217208   5.634   1.077   4.844 -0.6174  0.0316  0.2333
 5072SOL     OW17209   3.176   1.070   6.540  0.2349  0.0479  0.0797
 5072SOL    HW117210   3.128   1.135   6.593  0.2893  1.2764 -1.3111
 5072SOL    HW217211   3.194   0.999   6.601 -1.5299  0.4775  1.1831
 5073SOL     OW17212   8.210   7.866   4.953 -0.0604  0.1722 -0.3603
 5073SOL    HW117213   8.242   7.956   4.960 -2.0082  0.9058 -0.4123
 5073SOL    HW217214   8.255   7.819   5.024  0.7286  1.2340 -0.1216
 5074SOL     OW17215   0.257   8.714   0.345 -0.8163 -0.0404  0.3354
 5074SOL    HW117216   0.246   8.805   0.372 -1.2998 -0.3714  1.2904
 5074SOL    HW217217   0.168   8.679   0.341 -0.5669 -0.7862  1.1084
 5075SOL     OW17218   8.117   0.020   6.692 -0.7337 -0.6320  0.0903
 5075SOL    HW117219   8.050   0.084   6.715 -0.0122  1.1785 -2.3633
 5075SOL    HW217220   8.132  -0.030   6.772 -2.9050  0.8048  1.4948
 5076SOL     OW17221   7.879   1.760   7.728  0.5309  0.3382 -0.2358
 5076SOL    HW117222   7.923   1.678   7.751  1.2513  0.9991  0.7677
 5076SOL    HW217223   7.909   1.823   7.793 -2.2428  0.7324  0.8018
 5077SOL     OW17224   3.478   4.927   5.556 -0.0801 -0.0431 -0.6958
 5077SOL    HW117225   3.552   4.885   5.512 -0.1163 -0.2479 -0.5608
 5077SOL    HW217226   3.502   5.020   5.559  0.2111 -0.1219 -0.5733
 5078SOL     OW17227   7.518   0.988   4.687 -0.3665  0.2429  0.3829
 5078SOL    HW117228   7.519   1.018   4.596  2.1319 -0.4570  0.0780
 5078SOL    HW217229   7.561   1.059   4.735 -0.2242 -0.0852  0.7383
 5079SOL     OW17230   6.180   1.020   6.346  0.4140  0.3049 -0.1585
 5079SOL    HW117231   6.183   0.986   6.257  0.2098 -2.4344  0.7999
 5079SOL    HW217232   6.118   1.093   6.342 -1.3381 -1.1898 -1.8498
 5080SOL     OW17233   5.130   8.333   4.903 -0.0761  0.3736  0.1182
 5080SOL    HW117234   5.119   8.241   4.880 -1.2619  0.3090  0.8398
 5080SOL    HW217235   5.068   8.379   4.848 -0.4017  0.5897  0.6541
 5081SOL     OW17236   3.931   4.391   2.527 -0.0866  0.2252  0.5202
 5081SOL    HW117237   3.996   4.458   2.505 -0.0399  0.5497  1.5548
 5081SOL    HW217238   3.905   4.353   2.444  1.1491  0.3617  0.0598
 5082SOL     OW17239   3.429   0.043   2.278 -0.4097  0.4648 -0.2239
 5082SOL    HW117240   3.364   0.018   2.211 -0.0228  0.5552 -0.6392
 5082SOL    HW217241   3.401  -0.003   2.357 -1.1777  0.7734 -0.3066
 5083SOL     OW17242   6.765   7.055   5.791 -0.0435  0.3694  0.4787
 5083SOL    HW117243   6.689   7.078   5.843 -0.0668  0.5708  0.3564
 5083SOL    HW217244   6.741   6.974   5.746  0.1552 -0.0812  1.1579
 5084SOL     OW17245   6.268   5.235   7.542  0.0621 -0.4982 -0.0199
 5084SOL    HW117246   6.303   5.158   7.587  0.6718  0.4121  1.1129
 5084SOL    HW217247   6.345   5.285   7.515 -0.3290 -0.2573 -0.7295
 5085SOL     OW17248   1.232   4.890   4.097  0.3052  0.0009 -0.1022
 5085SOL    HW117249   1.231   4.964   4.036 -0.6620  1.1271  1.2345
 5085SOL    HW217250   1.300   4.913   4.161  1.5051 -1.2998 -0.8428
 5086SOL     OW17251   0.501   7.875   4.849 -0.3286  0.2314 -0.1893
 5086SOL    HW117252   0.474   7.793   4.808 -1.1515  0.5038 -0.2106
 5086SOL    HW217253   0.557   7.848   4.921 -0.4890 -0.3509 -0.2759
 5087SOL     OW17254   8.178   6.228   5.072  0.4691  0.5908  0.5829
 5087SOL    HW117255   8.201   6.242   4.980 -0.5382 -0.1915  0.1935
 5087SOL    HW217256   8.167   6.133   5.081  1.0032  0.6080  1.6323
 5088SOL     OW17257   6.896   4.238   0.957 -0.2728  0.0111  0.0514
 5088SOL    HW117258   6.897   4.197   0.870 -0.7661 -0.3183  0.1979
 5088SOL    HW217259   6.976   4.208   0.999 -0.9099 -1.2973  0.3798
 5089SOL     OW17260   4.208   8.696   8.501 -0.2784  0.1242 -0.5353
 5089SOL    HW117261   4.165   8.775   8.533 -0.0558 -0.2846  0.8240
 5089SOL    HW217262   4.299   8.705   8.529 -0.0330 -0.1773 -1.2128
 5090SOL     OW17263   3.729   5.632   0.882 -0.3529  0.4627 -0.0722
 5090SOL    HW117264   3.633   5.638   0.879 -0.4167 -0.3062  0.3113
 5090SOL    HW217265   3.747   5.547   0.921  0.4944  0.1569 -1.0902
 5091SOL     OW17266   7.554   6.552   3.124  0.4104 -0.4811  0.0354
 5091SOL    HW117267   7.530   6.580   3.212 -2.5977 -2.4131 -0.0502
 5091SOL    HW217268   7.474   6.561   3.072  1.5199 -1.3833 -1.9718
 5092SOL     OW17269   7.631   6.074   4.163  0.4475  0.0866 -0.0859
 5092SOL    HW117270   7.571   6.052   4.235  0.3167 -0.0834 -0.2465
 5092SOL    HW217271   7.594   6.154   4.125  0.6390  0.3001  0.1749
 5093SOL     OW17272   0.143   5.960   1.481 -0.2408 -0.4475 -0.4788
 5093SOL    HW117273   0.168   5.896   1.547  0.1620 -1.7244 -1.8321
 5093SOL    HW217274   0.048   5.968   1.490 -0.0988 -0.0013  0.7621
 5094SOL     OW17275   1.418   6.802   8.611 -0.6820 -0.3516  0.2075
 5094SOL    HW117276   1.399   6.867   8.544  1.1078  1.4332  1.3189
 5094SOL    HW217277   1.391   6.843   8.693 -0.5690 -1.4931  0.8346
 5095SOL     OW17278   4.233   4.988   6.449 -0.5737  0.2608 -0.5570
 5095SOL    HW117279   4.181   4.940   6.385  1.1357 -2.8907  0.1636
 5095SOL    HW217280   4.191   4.968   6.533  0.6715 -0.8597 -0.1586
 5096SOL     OW17281   3.528   1.590   5.462  0.0675  0.0526 -0.1886
 5096SOL    HW117282   3.433   1.592   5.446  0.3252 -0.9064 -2.1873
 5096SOL    HW217283   3.543   1.507   5.506 -0.1335  0.7371  1.2119
 5097SOL     OW17284   2.657   0.057   5.062  0.1152 -0.2319 -0.3994
 5097SOL    HW117285   2.742   0.034   5.099  0.9553  1.6340 -1.0583
 5097SOL    HW217286   2.632  -0.019   5.009  0.8247 -1.2496  0.6636
 5098SOL     OW17287   6.968   2.218   4.035 -0.0165  0.0513 -0.2921
 5098SOL    HW117288   7.016   2.255   3.962  0.4455  0.6967  0.3293
 5098SOL    HW217289   6.896   2.279   4.050  0.6317  0.6116  0.6066
 5099SOL     OW17290   1.365   0.066   3.044  0.7543  0.4548  0.1397
 5099SOL    HW117291   1.280   0.024   3.057  1.0015 -0.2143 -0.3641
 5099SOL    HW217292   1.364   0.094   2.953  1.7145 -1.0691 -0.3816
 5100SOL     OW17293   3.783   0.880   3.741 -0.2154 -0.6413  0.2805
 5100SOL    HW117294   3.808   0.919   3.825  0.0284  1.8819 -0.9035
 5100SOL    HW217295   3.857   0.898   3.683 -0.5740 -1.9663 -0.6468
 5101SOL     OW17296   3.851   6.338   1.026  0.1526 -0.4321 -0.1326
 5101SOL    HW117297   3.843   6.335   0.931  1.0138  0.0332 -0.2326
 5101SOL    HW217298   3.779   6.394   1.055  0.4603  0.2121 -0.6021
 5102SOL     OW17299   0.635   4.988   5.941 -0.3554 -0.3032  0.3871
 5102SOL    HW117300   0.580   5.011   5.866  0.1974  0.2111  0.1263
 5102SOL    HW217301   0.705   4.935   5.903 -0.8334 -1.2066  0.7633
 5103SOL     OW17302   0.343   8.695   2.425  0.2042 -0.5529  0.2110
 5103SOL    HW117303   0.336   8.705   2.330  0.3566 -1.3785  0.1099
 5103SOL    HW217304   0.399   8.619   2.438 -1.6201 -1.8554  0.9288
 5104SOL     OW17305   2.004   7.497   6.284  0.1962 -0.0790  0.7905
 5104SOL    HW117306   2.045   7.431   6.228  0.5129  2.0591 -1.6739
 5104SOL    HW217307   1.911   7.487   6.267  0.0181 -1.4324  2.3206
 5105SOL     OW17308   0.152   1.979   4.653  0.1319 -0.1982  0.2337
 5105SOL    HW117309   0.135   1.941   4.567  2.7505 -0.2329 -0.3229
 5105SOL    HW217310   0.230   1.934   4.685  1.6948  2.6840  0.7778
 5106SOL     OW17311   0.456   7.553   6.600  0.5153  0.3548  0.1520
 5106SOL    HW117312   0.414   7.477   6.561 -0.4355  1.1945 -0.5286
 5106SOL    HW217313   0.539   7.520   6.633 -0.5726 -1.3335  1.3907
 5107SOL     OW17314   3.134   0.142   3.581 -0.3113 -0.3895 -0.1136
 5107SOL    HW117315   3.107   0.179   3.497  0.1928 -2.2090 -1.1341
 5107SOL    HW217316   3.061   0.086   3.607  0.2483 -1.1581 -0.1949
 5108SOL     OW17317   4.383   4.729   2.275 -0.6999  0.8596 -0.6048
 5108SOL    HW117318   4.409   4.781   2.352  0.2810  1.1747 -1.1291
 5108SOL    HW217319   4.290   4.712   2.288 -0.7543  1.6829  0.2079
 5109SOL     OW17320   2.499   5.068   8.684 -0.4942  0.6197 -0.4571
 5109SOL    HW117321   2.535   5.120   8.613 -0.9835  1.0296 -0.4091
 5109SOL    HW217322   2.576   5.040   8.735  0.0244 -1.0028 -1.9992
 5110SOL     OW17323   8.189   6.165   8.113  0.3216  0.2949  0.2771
 5110SOL    HW117324   8.242   6.119   8.178 -1.0325  0.1412  1.3244
 5110SOL    HW217325   8.108   6.188   8.160 -1.1061 -0.6086 -1.5791
 5111SOL     OW17326   4.836   7.920   7.960  0.3636  0.9643  0.1477
 5111SOL    HW117327   4.754   7.875   7.940  0.4640  1.7954 -2.4468
 5111SOL    HW217328   4.810   8.012   7.974  0.7976  1.1505 -0.2567
 5112SOL     OW17329   1.309   0.261   8.584  0.5401 -0.0764  0.1006
 5112SOL    HW117330   1.286   0.327   8.650  0.2853 -0.3551  0.2943
 5112SOL    HW217331   1.238   0.265   8.520  2.1140  2.0966 -1.6413
 5113SOL     OW17332   4.614   2.583   6.780  0.5938 -0.7463  0.5867
 5113SOL    HW117333   4.637   2.524   6.709 -1.1158 -0.1125 -0.5735
 5113SOL    HW217334   4.623   2.671   6.743  0.8459 -0.3521  1.5430
 5114SOL     OW17335   6.974   7.514   6.334 -0.2628 -0.0206 -0.4447
 5114SOL    HW117336   7.015   7.598   6.354 -0.6122 -0.4924  2.7242
 5114SOL    HW217337   7.030   7.449   6.377 -1.4647 -1.1338 -0.5074
 5115SOL     OW17338   8.602   6.624   6.298 -0.3068  0.1633 -0.3796
 5115SOL    HW117339   8.638   6.628   6.387 -1.1934  1.8846 -0.0395
 5115SOL    HW217340   8.578   6.533   6.286  1.0097 -0.3588  0.6499
 5116SOL     OW17341   7.975   0.735   4.713  0.1181  0.1530  0.0558
 5116SOL    HW117342   8.001   0.648   4.745  2.3838  1.3152  1.7060
 5116SOL    HW217343   7.930   0.775   4.788 -2.4437 -0.0982 -1.2365
 5117SOL     OW17344   2.874   3.914   7.949  0.5257  0.2929  0.0043
 5117SOL    HW117345   2.948   3.937   7.892  1.9375 -1.4752  1.0181
 5117SOL    HW217346   2.889   3.964   8.029  1.3942 -1.0032  0.6935
 5118SOL     OW17347   2.961   7.708   0.307  0.1481 -0.1297 -0.2656
 5118SOL    HW117348   2.999   7.700   0.219  0.9232 -0.0984  0.0548
 5118SOL    HW217349   3.027   7.669   0.365 -0.8591 -1.2275  0.1966
 5119SOL     OW17350   2.298   1.722   3.199 -0.0301 -0.2453  0.5645
 5119SOL    HW117351   2.279   1.681   3.115  1.0177 -1.0679  0.6889
 5119SOL    HW217352   2.241   1.677   3.261 -0.0008 -0.4331  0.4571
 5120SOL     OW17353   3.385   8.796   4.153  0.2214  0.2171 -0.2460
 5120SOL    HW117354   3.457   8.844   4.112 -1.0155  0.7581 -1.8922
 5120SOL    HW217355   3.380   8.714   4.104  0.0873 -0.0850  0.2634
 5121SOL     OW17356   2.369   3.580   5.517 -0.4076 -0.5658  0.3079
 5121SOL    HW117357   2.374   3.666   5.559  1.6120  0.5838 -2.0129
 5121SOL    HW217358   2.295   3.536   5.560  0.8181  0.7845  4.2689
 5122SOL     OW17359   4.737   7.802   4.540  0.0579  0.4110  0.4925
 5122SOL    HW117360   4.826   7.803   4.575  0.8173  0.5656 -1.3410
 5122SOL    HW217361   4.683   7.837   4.611  1.1862 -1.2609  2.2584
 5123SOL     OW17362   0.846   5.591   4.081  0.4005  0.0968 -0.6072
 5123SOL    HW117363   0.927   5.547   4.054  0.7636 -0.0149  0.6347
 5123SOL    HW217364   0.786   5.519   4.101  1.0490  0.0987  1.5923
 5124SOL     OW17365   8.140   0.758   1.954 -0.0528  0.4393 -0.2308
 5124SOL    HW117366   8.171   0.848   1.966  0.2518  0.3387 -0.2419
 5124SOL    HW217367   8.218   0.704   1.968 -0.6428  0.0325  1.7513
 5125SOL     OW17368   5.411   7.252   3.618  0.5465  0.1303  0.3050
 5125SOL    HW117369   5.486   7.242   3.676 -0.2475  0.3426  1.3968
 5125SOL    HW217370   5.411   7.345   3.595  0.3353  0.2331  0.7105
 5126SOL     OW17371   5.647   5.513   8.277 -0.0158  0.2608  0.4063
 5126SOL    HW117372   5.729   5.513   8.327 -0.1851  1.5222  0.7129
 5126SOL    HW217373   5.604   5.594   8.303  0.3521  1.5117 -2.5287
 5127SOL     OW17374   8.867   2.564   0.208 -0.3839 -0.2174  0.8920
 5127SOL    HW117375   8.907   2.506   0.143  0.4579 -0.7487  1.8454
 5127SOL    HW217376   8.930   2.634   0.220 -1.1122  0.5691  0.2202
 5128SOL     OW17377   3.158   2.728   6.999  0.6884  0.0612 -0.3787
 5128SOL    HW117378   3.188   2.819   6.998 -1.1465  0.7154  0.2897
 5128SOL    HW217379   3.175   2.696   6.911  2.3228  0.6810 -0.3343
 5129SOL     OW17380   4.977   8.515   0.818  0.0853  0.5569  0.3660
 5129SOL    HW117381   4.946   8.577   0.754  1.9894 -1.2749 -2.5782
 5129SOL    HW217382   4.911   8.446   0.820  0.4526  0.1800 -0.3417
 5130SOL     OW17383   8.299   7.238   5.820  0.4807 -0.3864 -0.1421
 5130SOL    HW117384   8.270   7.304   5.757 -2.1220  0.6522  1.9271
 5130SOL    HW217385   8.290   7.155   5.773 -3.0859  0.1684 -0.7886
 5131SOL     OW17386   7.183   3.889   8.050  0.0849  0.0827  0.0112
 5131SOL    HW117387   7.166   3.981   8.028 -2.0537 -0.4144 -0.6364
 5131SOL    HW217388   7.146   3.839   7.976 -1.5753 -1.3891  1.7335
 5132SOL     OW17389   0.146   8.058   7.038 -0.2974  0.4082 -0.1150
 5132SOL    HW117390   0.224   8.075   7.090  0.7206  0.7700 -1.6948
 5132SOL    HW217391   0.111   7.975   7.073 -0.2147  1.0989  1.7193
 5133SOL     OW17392   5.280   5.327   2.678  0.2357 -0.3437  0.2699
 5133SOL    HW117393   5.255   5.305   2.768 -1.6489 -1.7902 -0.5284
 5133SOL    HW217394   5.271   5.244   2.630  0.7306  0.5001 -1.3419
 5134SOL     OW17395   5.328   5.571   8.790  0.4933 -0.1076 -0.3031
 5134SOL    HW117396   5.311   5.620   8.710  0.8947  0.2239 -0.1895
 5134SOL    HW217397   5.398   5.619   8.833  0.0972 -0.1335  0.3841
 5135SOL     OW17398   3.650   1.900   5.813  0.1628  0.5306  0.3519
 5135SOL    HW117399   3.665   1.838   5.742 -3.3567 -1.7090  1.2978
 5135SOL    HW217400   3.698   1.864   5.887 -0.7822 -0.4358  0.5326
 5136SOL     OW17401   8.485   3.226   1.848  0.0595 -0.5100  0.2749
 5136SOL    HW117402   8.568   3.246   1.892  1.1321  0.6017 -2.0843
 5136SOL    HW217403   8.420   3.279   1.894  1.1731  0.8211  0.3518
 5137SOL     OW17404   6.470   2.454   6.623  0.5047  0.2535  0.1235
 5137SOL    HW117405   6.530   2.402   6.678  1.6192  1.0894 -0.2583
 5137SOL    HW217406   6.514   2.460   6.539 -1.1996 -1.0196 -0.9148
 5138SOL     OW17407   2.823   1.481   1.262  0.1328  0.3750  0.0535
 5138SOL    HW117408   2.745   1.535   1.268 -0.7027 -0.6725 -0.9816
 5138SOL    HW217409   2.866   1.508   1.181  1.5903  1.8500  1.2490
 5139SOL     OW17410   5.932   5.987   4.413  0.6150  0.1228 -0.3187
 5139SOL    HW117411   6.003   5.956   4.357  0.0375 -1.6311 -0.1215
 5139SOL    HW217412   5.923   6.080   4.390  3.2064  0.5220 -0.0715
 5140SOL     OW17413   0.068   7.724   3.610  0.6900 -0.2348 -0.0095
 5140SOL    HW117414   0.001   7.692   3.670  0.6985  1.7703  1.1552
 5140SOL    HW217415   0.080   7.653   3.547 -0.6992 -1.6395  1.2333
 5141SOL     OW17416   7.181   2.896   5.876  0.2895  0.1804  0.0288
 5141SOL    HW117417   7.192   2.880   5.970  1.3602 -0.3539 -0.1691
 5141SOL    HW217418   7.159   2.810   5.840  1.7772 -0.0184 -0.4576
 5142SOL     OW17419   1.707   6.420   1.230 -0.3204  0.3676  0.3791
 5142SOL    HW117420   1.718   6.366   1.308  1.4717 -0.1822 -0.2162
 5142SOL    HW217421   1.738   6.507   1.257  0.0564  0.2408  0.3608
 5143SOL     OW17422   0.848   7.765   3.192 -0.3496 -0.6836 -0.6705
 5143SOL    HW117423   0.754   7.769   3.207 -0.3854 -0.8488 -0.8601
 5143SOL    HW217424   0.858   7.753   3.098 -0.1016  2.8208 -1.2557
 5144SOL     OW17425   8.537   8.429   0.156 -0.2538 -0.4722 -0.1124
 5144SOL    HW117426   8.577   8.347   0.187 -0.4917 -0.6540 -0.2774
 5144SOL    HW217427   8.571   8.439   0.066 -2.3991 -1.8889 -1.1628
 5145SOL     OW17428   6.256   3.998   7.895  0.7547 -0.3864 -0.1388
 5145SOL    HW117429   6.338   3.973   7.939  0.4777 -1.9020 -0.4205
 5145SOL    HW217430   6.283   4.064   7.831  1.7348 -0.6877 -0.0649
 5146SOL     OW17431   6.978   8.758   0.476  0.1080  0.8677 -0.0712
 5146SOL    HW117432   6.940   8.670   0.470 -0.2822  0.9699  0.8248
 5146SOL    HW217433   6.996   8.782   0.385 -0.7370  0.2739 -0.4128
 5147SOL     OW17434   3.880   0.857   0.388  0.7200 -0.1524  0.0048
 5147SOL    HW117435   3.882   0.762   0.376  1.5618 -0.2913  1.1266
 5147SOL    HW217436   3.950   0.890   0.332 -0.8465  0.0299 -1.9426
 5148SOL     OW17437   6.635   0.063   3.933 -0.6100  0.1824 -0.4139
 5148SOL    HW117438   6.623   0.152   3.900  0.8163  1.2344  1.7081
 5148SOL    HW217439   6.729   0.052   3.940 -0.7555 -1.5319 -0.6257
 5149SOL     OW17440   0.593   3.938   1.056  0.6802  0.3218 -0.1702
 5149SOL    HW117441   0.688   3.936   1.045  0.4739 -0.1662 -2.2062
 5149SOL    HW217442   0.581   3.943   1.151  2.7404  2.5821  0.0692
 5150SOL     OW17443   0.686   5.568   1.825  0.4099 -0.2286 -0.0865
 5150SOL    HW117444   0.738   5.522   1.760 -0.8961  0.3084 -1.5851
 5150SOL    HW217445   0.693   5.514   1.904  2.7772 -0.4099 -0.3498
 5151SOL     OW17446   7.751   0.355   0.850  0.0516  0.1081  0.0791
 5151SOL    HW117447   7.696   0.426   0.816  0.0575  1.2015  2.1660
 5151SOL    HW217448   7.689   0.294   0.890  0.0084 -1.3814 -2.0943
 5152SOL     OW17449   7.774   3.975   3.164  0.2123 -0.1104 -0.5566
 5152SOL    HW117450   7.789   3.991   3.257  0.6536  1.1764 -0.8228
 5152SOL    HW217451   7.859   3.948   3.130 -0.2846 -2.1086 -0.3272
 5153SOL     OW17452   3.648   3.965   5.531 -0.1938 -0.3658 -0.2713
 5153SOL    HW117453   3.618   3.886   5.575 -1.3810 -0.3744 -1.0406
 5153SOL    HW217454   3.592   4.035   5.565  0.1287 -0.0415 -0.3916
 5154SOL     OW17455   5.918   1.765   4.373  0.1987  0.1096  0.0873
 5154SOL    HW117456   5.960   1.803   4.296  0.4711 -0.1814  0.0936
 5154SOL    HW217457   5.968   1.686   4.392 -1.3569 -1.1944 -0.9227
 5155SOL     OW17458   7.518   8.325   1.167  0.1160 -0.4504 -0.4406
 5155SOL    HW117459   7.550   8.241   1.133  0.7227  0.4321 -2.1450
 5155SOL    HW217460   7.497   8.376   1.089  1.8362  1.7958  0.4793
 5156SOL     OW17461   5.235   6.490   4.677 -0.9695  0.3833  0.0405
 5156SOL    HW117462   5.273   6.440   4.604  0.8256  1.9877 -0.2031
 5156SOL    HW217463   5.304   6.492   4.743 -1.8002  0.7368  0.9194
 5157SOL     OW17464   4.742   8.503   8.839 -0.2271 -0.1622  0.3296
 5157SOL    HW117465   4.820   8.517   8.784  0.2124 -0.4719  0.8586
 5157SOL    HW217466   4.722   8.590   8.874  0.1169 -0.1418  0.4852
 5158SOL     OW17467   6.981   4.153   2.946 -0.5451 -0.1858 -0.6822
 5158SOL    HW117468   7.038   4.078   2.931  0.0730  0.0859  0.2358
 5158SOL    HW217469   7.040   4.228   2.949 -1.0608  0.2251 -0.7448
 5159SOL     OW17470   8.499   8.056   4.659  0.4205 -0.0973  0.1389
 5159SOL    HW117471   8.467   8.121   4.596  1.1653  1.3981  1.2609
 5159SOL    HW217472   8.585   8.031   4.625  0.7464  0.5753  0.4530
 5160SOL     OW17473   7.415   1.233   4.201 -0.4782 -0.0482 -0.3153
 5160SOL    HW117474   7.498   1.249   4.157  0.1076 -1.0087  0.3983
 5160SOL    HW217475   7.358   1.198   4.132 -0.4108  0.9419 -0.8839
 5161SOL     OW17476   7.359   8.324   1.408 -0.3185  0.1479 -0.0173
 5161SOL    HW117477   7.424   8.350   1.343  0.0701 -0.4808  0.1097
 5161SOL    HW217478   7.277   8.315   1.359  0.2588 -1.7564 -0.7353
 5162SOL     OW17479   4.409   4.618   1.952  0.3172 -0.3064  0.6094
 5162SOL    HW117480   4.391   4.669   1.873 -2.4160 -3.7327 -1.2677
 5162SOL    HW217481   4.361   4.663   2.021  0.9382  1.5613 -0.1033
 5163SOL     OW17482   2.790   2.261   4.370 -0.3495 -0.8895  0.3561
 5163SOL    HW117483   2.782   2.233   4.461 -0.4054 -0.6179  0.4340
 5163SOL    HW217484   2.747   2.191   4.320 -1.6680 -0.3046  0.6455
 5164SOL     OW17485   0.918   6.288   6.346  0.8720 -0.5713 -0.0529
 5164SOL    HW117486   0.994   6.270   6.291  0.3744 -1.5719 -0.4397
 5164SOL    HW217487   0.901   6.205   6.391 -1.5105 -1.1819 -1.8914
 5165SOL     OW17488   3.181   7.235   8.023 -0.6359 -0.1567  0.2216
 5165SOL    HW117489   3.245   7.178   8.067 -0.5451  0.6141  1.1222
 5165SOL    HW217490   3.207   7.233   7.931  0.0961 -0.6188  0.4231
 5166SOL     OW17491   7.830   2.054   7.463 -0.2315 -0.2519  0.2786
 5166SOL    HW117492   7.840   2.124   7.398  2.5123 -0.5346  0.2989
 5166SOL    HW217493   7.767   2.089   7.526 -0.3392  1.4262 -0.6962
 5167SOL     OW17494   4.057   3.946   2.932  0.3460 -0.9379 -0.0851
 5167SOL    HW117495   4.132   4.003   2.915 -0.5573 -0.1040 -1.4238
 5167SOL    HW217496   3.984   4.006   2.946 -0.0571 -1.7256  1.5313
 5168SOL     OW17497   0.359   6.430   1.368 -0.3959  0.2583  0.1523
 5168SOL    HW117498   0.433   6.486   1.344 -0.0433 -0.1565  0.2695
 5168SOL    HW217499   0.394   6.341   1.365 -1.0219  0.0201 -0.2768
 5169SOL     OW17500   6.035   0.261   7.154  0.3222 -0.0007 -0.4119
 5169SOL    HW117501   5.998   0.262   7.242  0.8123  1.3735 -0.1886
 5169SOL    HW217502   5.963   0.233   7.098 -0.0271 -0.7889  0.4070
 5170SOL     OW17503   8.483   7.595   0.949 -0.1541 -0.1389  0.4946
 5170SOL    HW117504   8.506   7.578   0.858  0.5595 -0.8236  0.7939
 5170SOL    HW217505   8.467   7.690   0.952 -0.7214 -0.1840 -0.4463
 5171SOL     OW17506   1.909   6.271   3.743  0.0510  0.1557  0.4453
 5171SOL    HW117507   1.915   6.304   3.654 -2.4187 -0.6574 -0.0944
 5171SOL    HW217508   1.815   6.262   3.759 -0.0008  3.9636  4.5228
 5172SOL     OW17509   7.698   1.003   2.917 -0.1387  0.1813  0.1883
 5172SOL    HW117510   7.615   1.011   2.870  0.1878  0.7270 -0.3130
 5172SOL    HW217511   7.758   1.059   2.868  0.7107 -0.7645  0.1309
 5173SOL     OW17512   5.902   2.495   4.018 -0.2630 -0.0234 -0.2566
 5173SOL    HW117513   5.958   2.424   3.987 -0.1021  0.4583 -1.0961
 5173SOL    HW217514   5.885   2.548   3.940 -0.0278  1.1045  0.4443
 5174SOL     OW17515   8.196   8.793   6.932 -0.2976 -0.1347 -0.0132
 5174SOL    HW117516   8.143   8.849   6.989  0.1020 -0.3677  0.5948
 5174SOL    HW217517   8.278   8.780   6.980  0.3641  0.3118 -1.0009
 5175SOL     OW17518   3.433   6.174   7.028  0.6085 -0.3194 -0.9022
 5175SOL    HW117519   3.428   6.089   7.072  0.4432 -0.4202 -1.1153
 5175SOL    HW217520   3.467   6.233   7.095  1.6575 -0.7531 -1.0308
 5176SOL     OW17521   0.463   8.124   3.518  0.0185 -0.1758 -0.3849
 5176SOL    HW117522   0.536   8.116   3.457  0.6322 -0.4217  0.3648
 5176SOL    HW217523   0.391   8.079   3.474  1.0216 -2.2176 -0.0610
 5177SOL     OW17524   7.075   6.906   4.620 -0.0164 -0.1319  0.8487
 5177SOL    HW117525   7.064   6.993   4.658  1.7998 -0.6205  2.6230
 5177SOL    HW217526   6.988   6.868   4.623 -0.6826  1.3009  0.8105
 5178SOL     OW17527   1.231   4.103   2.257  0.0778 -0.3882 -0.2960
 5178SOL    HW117528   1.199   4.188   2.229 -0.4105 -0.4711  0.0047
 5178SOL    HW217529   1.316   4.094   2.214 -0.2096 -0.0797 -0.9326
 5179SOL     OW17530   5.219   2.336   3.953  0.4388  0.3954  0.5035
 5179SOL    HW117531   5.221   2.409   3.892 -1.1616 -1.1425 -1.5087
 5179SOL    HW217532   5.269   2.267   3.911  0.3311 -0.3163  1.4872
 5180SOL     OW17533   6.660   4.986   3.824  0.0251  0.1531 -0.8407
 5180SOL    HW117534   6.674   5.020   3.912  1.7580  1.2166 -1.4688
 5180SOL    HW217535   6.596   4.915   3.835 -1.5923  1.7779  0.9107
 5181SOL     OW17536   3.246   2.139   1.112  0.1627 -0.6286  0.0270
 5181SOL    HW117537   3.284   2.136   1.025  0.9930 -1.6511  0.3977
 5181SOL    HW217538   3.321   2.138   1.171 -0.3706 -2.9854  0.7936
 5182SOL     OW17539   1.972   1.417   2.272 -0.3563  0.3602 -0.1274
 5182SOL    HW117540   1.943   1.410   2.363  2.3072  0.1817  0.7919
 5182SOL    HW217541   2.066   1.438   2.278 -0.1868  0.7677 -2.8420
 5183SOL     OW17542   4.943   6.163   0.726  0.0009  0.4859 -0.2290
 5183SOL    HW117543   5.023   6.213   0.739  0.9638 -0.8293 -0.9709
 5183SOL    HW217544   4.894   6.175   0.808  1.0965  1.0284  0.3590
 5184SOL     OW17545   0.110   4.085   5.875  0.2255  0.3146  0.4262
 5184SOL    HW117546   0.057   4.019   5.830 -2.1884  2.3025  0.1661
 5184SOL    HW217547   0.069   4.094   5.961  1.6257  0.2643  1.1342
 5185SOL     OW17548   4.549   8.162   2.289  0.0108 -1.0475  0.1626
 5185SOL    HW117549   4.591   8.076   2.294  1.4612 -0.4258 -0.8104
 5185SOL    HW217550   4.511   8.165   2.201 -1.4331 -1.2849  0.7520
 5186SOL     OW17551   0.077   4.882   5.589 -0.5935  0.2891  0.2480
 5186SOL    HW117552   0.027   4.885   5.671 -0.7628 -1.6289  0.2668
 5186SOL    HW217553   0.087   4.974   5.564 -0.4947  0.9498  2.4286
 5187SOL     OW17554   8.826   4.616   1.126  0.0186 -0.2152 -0.5131
 5187SOL    HW117555   8.820   4.550   1.057 -1.4264  0.9726 -1.6064
 5187SOL    HW217556   8.736   4.622   1.160  0.1609  1.0303 -0.3115
 5188SOL     OW17557   3.091   4.093   4.714 -0.2331 -0.2103  0.1471
 5188SOL    HW117558   3.120   4.055   4.631 -0.1754 -0.9386  0.4940
 5188SOL    HW217559   3.172   4.112   4.761 -0.2779 -0.4149  0.3076
 5189SOL     OW17560   1.329   2.790   3.092  0.1768  0.6214  0.1080
 5189SOL    HW117561   1.329   2.868   3.148 -0.8421  0.8689 -0.2165
 5189SOL    HW217562   1.250   2.743   3.118 -0.6288  1.0190 -1.4901
 5190SOL     OW17563   3.588   0.839   0.762 -0.4176  0.0738 -0.0002
 5190SOL    HW117564   3.526   0.902   0.796 -0.5044 -0.3540  0.6416
 5190SOL    HW217565   3.537   0.785   0.702 -1.1625 -1.5082  1.9665
 5191SOL     OW17566   3.048   7.043   5.905 -0.6306 -0.0210  0.3413
 5191SOL    HW117567   3.031   7.042   5.811  2.1425  0.4731 -0.2373
 5191SOL    HW217568   2.975   7.093   5.942 -1.8509 -0.3508 -1.4993
 5192SOL     OW17569   4.081   2.340   6.175 -0.3766 -0.4384 -0.5148
 5192SOL    HW117570   4.169   2.338   6.213  0.6358  2.7887 -2.3476
 5192SOL    HW217571   4.024   2.361   6.249  0.6401 -0.7536  0.3868
 5193SOL     OW17572   4.738   6.014   6.468 -0.3104  0.1020  0.0101
 5193SOL    HW117573   4.649   6.037   6.496  0.1996  1.1817  0.8073
 5193SOL    HW217574   4.776   5.971   6.545  0.3435  1.0348  0.2307
 5194SOL     OW17575   4.759   0.544   5.950 -0.0305  0.3547 -0.3010
 5194SOL    HW117576   4.799   0.459   5.931 -0.3520  0.0058  0.5349
 5194SOL    HW217577   4.820   0.608   5.914 -0.5546 -0.2397 -2.4088
 5195SOL     OW17578   6.883   2.725   1.133  0.0806  0.1797 -0.0480
 5195SOL    HW117579   6.964   2.757   1.095  0.1509  2.0070  1.5017
 5195SOL    HW217580   6.837   2.803   1.163 -2.0363 -0.8392 -0.4096
 5196SOL     OW17581   5.383   4.344   0.505 -0.4049  0.5677  0.0654
 5196SOL    HW117582   5.453   4.405   0.530  1.2619 -1.1535 -0.2162
 5196SOL    HW217583   5.396   4.330   0.411 -1.2934  0.4208 -0.0416
 5197SOL     OW17584   1.701   8.087   8.008 -0.4123  0.1020  0.8032
 5197SOL    HW117585   1.634   8.102   7.942 -0.2501 -1.5725  0.1900
 5197SOL    HW217586   1.657   8.100   8.092 -1.7194 -1.5850  0.4343
 5198SOL     OW17587   8.498   3.885   3.614 -0.0477  0.1398  0.9033
 5198SOL    HW117588   8.445   3.805   3.615  1.2571 -0.7503  1.0636
 5198SOL    HW217589   8.588   3.854   3.620  0.4794  1.6435  1.1040
 5199SOL     OW17590   2.062   1.849   7.693  0.6008 -0.1715 -0.6503
 5199SOL    HW117591   2.066   1.753   7.691  1.4207 -0.1632 -0.1944
 5199SOL    HW217592   2.151   1.875   7.716 -0.2873  0.5615  2.4838
 5200SOL     OW17593   5.890   3.487   7.271 -0.3337 -0.2669 -0.2158
 5200SOL    HW117594   5.885   3.565   7.326  0.2236 -0.2186 -0.2347
 5200SOL    HW217595   5.846   3.418   7.322  0.4380 -0.2973  0.4144
 5201SOL     OW17596   4.800   8.827   8.031 -0.5326  0.4788 -0.4517
 5201SOL    HW117597   4.804   8.922   8.041 -0.2435  0.4047  0.2318
 5201SOL    HW217598   4.709   8.809   8.007 -0.1229  1.0830 -2.6572
 5202SOL     OW17599   6.664   4.959   3.058 -0.2986  0.2533  0.0633
 5202SOL    HW117600   6.602   4.886   3.046 -0.6481  0.5193  0.2313
 5202SOL    HW217601   6.624   5.012   3.127 -0.8408  1.4488 -1.1233
 5203SOL     OW17602   8.237   0.803   3.848  0.6729  0.5759 -0.4042
 5203SOL    HW117603   8.238   0.791   3.943 -0.2922  1.1199 -0.3173
 5203SOL    HW217604   8.191   0.885   3.834  1.6870  1.0178 -1.3029
 5204SOL     OW17605   2.823   0.109   4.353 -0.3844 -0.1331 -0.1021
 5204SOL    HW117606   2.840   0.203   4.344 -0.1083 -0.2686 -1.1293
 5204SOL    HW217607   2.729   0.104   4.370 -0.4926  0.3134 -0.5228
 5205SOL     OW17608   2.117   2.039   7.509  0.1837  0.1400  0.5141
 5205SOL    HW117609   2.050   2.088   7.461 -0.7089 -0.0552  1.5110
 5205SOL    HW217610   2.068   1.991   7.575  1.0845 -1.8860 -0.2328
 5206SOL     OW17611   0.538   5.360   3.891  0.1300  0.0621  0.0992
 5206SOL    HW117612   0.571   5.429   3.834 -1.3157  0.9797  0.3208
 5206SOL    HW217613   0.457   5.396   3.928 -0.7654 -1.8270  0.0873
 5207SOL     OW17614   4.880   2.199   0.063 -0.3800  0.1013  0.9104
 5207SOL    HW117615   4.891   2.181   0.156  3.7866 -1.8059  0.2831
 5207SOL    HW217616   4.893   2.114   0.020 -1.5599  1.0280 -1.4901
 5208SOL     OW17617   2.880   2.265   3.441 -0.1661  0.1832 -0.1107
 5208SOL    HW117618   2.967   2.293   3.469  0.1530 -3.4805  3.4499
 5208SOL    HW217619   2.844   2.218   3.516 -4.8769  0.5592 -1.7738
 5209SOL     OW17620   7.372   0.893   3.595 -0.0742 -0.4297  0.6965
 5209SOL    HW117621   7.425   0.870   3.671  0.7484 -0.0148  0.2592
 5209SOL    HW217622   7.410   0.974   3.562 -1.0691 -0.0514  0.4473
 5210SOL     OW17623   4.934   7.422   1.375  0.0836 -0.2061 -0.6059
 5210SOL    HW117624   4.908   7.353   1.436 -1.5241  0.9973  0.1438
 5210SOL    HW217625   4.953   7.376   1.293  1.4120 -1.7562  0.4991
 5211SOL     OW17626   8.519   1.445   0.222  0.5553 -0.8809  0.2259
 5211SOL    HW117627   8.435   1.399   0.218  0.2426 -0.2686 -0.4078
 5211SOL    HW217628   8.538   1.469   0.131 -0.4554  2.2755  0.7426
 5212SOL     OW17629   3.747   7.148   1.728  0.1492  0.2647  0.2249
 5212SOL    HW117630   3.789   7.231   1.705 -0.1875  0.7084  1.1438
 5212SOL    HW217631   3.656   7.172   1.747  0.0149 -0.3405  0.3737
 5213SOL     OW17632   8.474   5.267   1.746  0.1079 -0.4394  0.0728
 5213SOL    HW117633   8.420   5.272   1.667  0.4959 -1.3119 -0.2544
 5213SOL    HW217634   8.452   5.347   1.794 -1.9104 -1.0508  0.2407
 5214SOL     OW17635   3.800   4.448   6.385 -0.0138 -0.0112  0.2961
 5214SOL    HW117636   3.776   4.541   6.386  2.5822  0.7639 -1.0555
 5214SOL    HW217637   3.874   4.442   6.445  0.6917 -0.9305 -0.6397
 5215SOL     OW17638   0.563   0.437   2.903 -0.4569  0.0357 -0.3739
 5215SOL    HW117639   0.606   0.496   2.841  1.2245 -0.8161 -0.0645
 5215SOL    HW217640   0.520   0.372   2.848  0.8093 -0.5626 -0.6997
 5216SOL     OW17641   8.179   0.520   1.170  0.1204  0.6826  0.0828
 5216SOL    HW117642   8.233   0.442   1.161  0.0601  0.6438  0.0559
 5216SOL    HW217643   8.100   0.501   1.119  0.9142  1.4990 -1.5232
 5217SOL     OW17644   7.333   1.660   2.547  0.4035 -0.2549  0.0190
 5217SOL    HW117645   7.386   1.587   2.514 -0.4056 -0.8607  0.0446
 5217SOL    HW217646   7.324   1.718   2.471  0.0971 -0.7408 -0.3204
 5218SOL     OW17647   8.450   6.419   5.054  1.0660 -0.3426  0.3024
 5218SOL    HW117648   8.525   6.399   4.997  1.4679  0.2166  0.6322
 5218SOL    HW217649   8.402   6.488   5.007  0.6975 -0.7589  0.0500
 5219SOL     OW17650   7.779   6.632   4.530 -0.1737 -0.2157 -0.1014
 5219SOL    HW117651   7.753   6.636   4.622 -2.3912 -2.0808 -0.5665
 5219SOL    HW217652   7.698   6.646   4.481  0.9855  0.9713 -1.8400
 5220SOL     OW17653   6.873   3.536   3.971  0.0368  0.5164  0.1688
 5220SOL    HW117654   6.822   3.559   4.049  0.1444  0.1152  0.3611
 5220SOL    HW217655   6.935   3.469   4.002 -0.6200 -0.4155 -0.4916
 5221SOL     OW17656   6.704   4.868   8.204 -0.7508  0.2426  0.3213
 5221SOL    HW117657   6.693   4.932   8.274  1.1197 -0.1573  1.0509
 5221SOL    HW217658   6.792   4.885   8.170 -1.6795  0.5678 -2.1205
 5222SOL     OW17659   6.826   4.386   4.086 -0.0695 -0.0526 -0.3120
 5222SOL    HW117660   6.773   4.378   4.165  0.5377  1.5569  0.3080
 5222SOL    HW217661   6.903   4.331   4.104  1.3576  2.3146  1.4308
 5223SOL     OW17662   8.553   2.146   8.482 -0.1278 -0.0469 -0.2065
 5223SOL    HW117663   8.473   2.130   8.433  0.0372  0.6425 -0.7275
 5223SOL    HW217664   8.523   2.187   8.563 -0.2768  0.6882 -0.6244
 5224SOL     OW17665   0.436   5.448   5.604 -0.4315 -0.1999  0.6959
 5224SOL    HW117666   0.496   5.418   5.536 -1.9740  1.5404 -1.5590
 5224SOL    HW217667   0.351   5.412   5.580 -0.8126 -0.6019  2.4590
 5225SOL     OW17668   3.746   4.137   6.564  0.2603  0.0113  0.3819
 5225SOL    HW117669   3.693   4.215   6.577  0.6387  0.4519 -0.6761
 5225SOL    HW217670   3.718   4.101   6.480  0.2792 -0.8460  0.7225
 5226SOL     OW17671   4.955   5.958   3.127  0.3360 -0.5142 -0.1144
 5226SOL    HW117672   4.873   6.006   3.143  1.5536  1.6599  0.0644
 5226SOL    HW217673   4.959   5.893   3.197 -0.3843  0.6026  1.0240
 5227SOL     OW17674   6.014   7.815   5.041 -0.3743  0.0357 -0.5755
 5227SOL    HW117675   6.022   7.903   5.005 -0.6775 -0.2707 -1.4160
 5227SOL    HW217676   6.040   7.757   4.970  0.5551 -0.5446  0.2049
 5228SOL     OW17677   5.987   6.943   3.771 -0.4660 -0.2306  0.1093
 5228SOL    HW117678   6.006   6.899   3.853 -0.2479  0.0425  0.2078
 5228SOL    HW217679   5.897   6.919   3.750 -0.8292  0.4249  0.8883
 5229SOL     OW17680   3.994   8.069   1.017 -0.1701 -0.3335  0.2876
 5229SOL    HW117681   4.017   8.055   1.109  1.3476  0.4032  0.0515
 5229SOL    HW217682   3.917   8.014   1.003  0.3109 -1.4227  1.6735
 5230SOL     OW17683   6.733   7.470   0.919 -0.2207 -0.3019 -0.6385
 5230SOL    HW117684   6.698   7.547   0.874  0.2153 -1.0800 -2.4370
 5230SOL    HW217685   6.823   7.462   0.886  0.6171 -0.1563  1.4574
 5231SOL     OW17686   0.584   2.404   0.945 -0.5263 -0.0011 -0.6601
 5231SOL    HW117687   0.492   2.395   0.920 -1.1608  0.9297  1.1203
 5231SOL    HW217688   0.619   2.315   0.942 -1.9196 -0.5990  0.1280
 5232SOL     OW17689   0.898   5.314   2.859 -0.2416 -0.6417  0.1065
 5232SOL    HW117690   0.938   5.270   2.933  1.2088  0.0243 -0.2629
 5232SOL    HW217691   0.901   5.407   2.881 -1.2347 -0.5456 -0.1112
 5233SOL     OW17692   6.163   2.141   6.879 -0.2339  0.1066 -0.6768
 5233SOL    HW117693   6.118   2.060   6.853 -2.4831  1.1317 -0.1592
 5233SOL    HW217694   6.160   2.140   6.975  0.6037  0.3427 -0.6438
 5234SOL     OW17695   8.689   2.464   5.621  0.0541  0.6315 -0.0336
 5234SOL    HW117696   8.756   2.524   5.589  0.9434 -0.4668 -0.2904
 5234SOL    HW217697   8.651   2.427   5.541  1.1111 -0.8457  0.1055
 5235SOL     OW17698   7.473   2.081   3.964  0.4668 -0.6068  0.3866
 5235SOL    HW117699   7.488   2.031   3.884 -1.2870 -1.8014  0.7646
 5235SOL    HW217700   7.533   2.042   4.028  0.8093 -0.6266  0.0601
 5236SOL     OW17701   4.888   8.802   8.481  0.5745  0.5200  0.6482
 5236SOL    HW117702   4.915   8.893   8.466  0.7389  0.4649  0.6073
 5236SOL    HW217703   4.898   8.789   8.575 -1.7655  1.2949  1.0802
 5237SOL     OW17704   3.381   0.693   2.676  0.0192 -0.7821 -0.1006
 5237SOL    HW117705   3.435   0.748   2.733 -0.5331  0.0778 -0.3880
 5237SOL    HW217706   3.431   0.686   2.595  0.0097 -0.5670 -0.1240
 5238SOL     OW17707   2.788   8.753   6.741  0.5326  0.0721 -0.1168
 5238SOL    HW117708   2.867   8.724   6.785  0.5556 -1.9232 -1.3240
 5238SOL    HW217709   2.811   8.755   6.648 -0.2754  1.5056 -0.3250
 5239SOL     OW17710   0.560   4.695   8.548  0.3445 -0.1880 -0.0379
 5239SOL    HW117711   0.590   4.629   8.486  2.9337 -0.8105  1.7131
 5239SOL    HW217712   0.577   4.656   8.634 -0.3406  1.7897  1.0497
 5240SOL     OW17713   0.269   7.124   3.900 -0.3352  0.0996 -0.1847
 5240SOL    HW117714   0.354   7.167   3.908 -0.3178 -0.2071  1.8320
 5240SOL    HW217715   0.225   7.170   3.828  1.5790  0.1336 -1.3943
 5241SOL     OW17716   1.182   4.003   2.931 -0.3673  0.0488  0.4441
 5241SOL    HW117717   1.255   3.947   2.957 -0.1845  0.6310  1.2567
 5241SOL    HW217718   1.105   3.947   2.938 -0.1138 -0.2843  0.6010
 5242SOL     OW17719   3.670   3.736   1.427  0.0284  0.2527  0.5272
 5242SOL    HW117720   3.706   3.820   1.453 -0.2149  0.7556 -0.7096
 5242SOL    HW217721   3.599   3.758   1.366  0.0357 -0.8506  0.0995
 5243SOL     OW17722   8.493   7.469   6.654 -0.0549  0.4287 -0.4567
 5243SOL    HW117723   8.459   7.548   6.697  0.3849 -0.4009  1.5165
 5243SOL    HW217724   8.579   7.494   6.622  1.5606  0.0089  3.0465
 5244SOL     OW17725   0.808   5.365   7.404  0.7522  0.2347 -0.7022
 5244SOL    HW117726   0.722   5.337   7.372 -0.1764  0.6450  1.2931
 5244SOL    HW217727   0.838   5.428   7.338 -0.5600  0.2054 -1.3650
 5245SOL     OW17728   1.676   8.843   4.197 -0.2911  0.2781 -0.5558
 5245SOL    HW117729   1.759   8.822   4.240 -1.1270 -2.1049  0.0571
 5245SOL    HW217730   1.701   8.891   4.119  1.5897  0.5781  0.1802
 5246SOL     OW17731   1.226   0.932   4.661  0.1787 -0.3804 -0.4301
 5246SOL    HW117732   1.315   0.967   4.653 -0.2218  0.6688 -0.4394
 5246SOL    HW217733   1.238   0.843   4.694  1.1721  0.3133  1.1952
 5247SOL     OW17734   4.915   3.289   7.839  0.3806 -0.2452  0.1932
 5247SOL    HW117735   4.882   3.227   7.775  0.9704 -1.0450  0.6364
 5247SOL    HW217736   5.004   3.309   7.810  1.0263 -1.4032  1.2829
 5248SOL     OW17737   5.282   1.427   6.410  0.5201 -0.0047 -0.3124
 5248SOL    HW117738   5.269   1.332   6.404 -1.2004  0.1772 -0.0995
 5248SOL    HW217739   5.226   1.454   6.483  1.1625  1.1457 -0.2221
 5249SOL     OW17740   6.272   4.053   7.169 -0.0523 -0.1233 -0.1206
 5249SOL    HW117741   6.287   3.962   7.144 -0.2391  0.2505 -1.7102
 5249SOL    HW217742   6.344   4.102   7.128 -0.8888  0.6362 -0.7409
 5250SOL     OW17743   5.634   3.616   2.515 -0.4339  0.1863  0.5691
 5250SOL    HW117744   5.723   3.649   2.530 -0.3317  0.4182 -0.4614
 5250SOL    HW217745   5.590   3.687   2.467 -0.4454 -0.8375 -1.0104
 5251SOL     OW17746   3.910   2.206   3.560 -0.5010 -0.6783  0.3811
 5251SOL    HW117747   3.943   2.293   3.537 -1.4492 -0.9607 -2.3392
 5251SOL    HW217748   3.841   2.223   3.624 -0.0042  0.4834  0.6296
 5252SOL     OW17749   0.869   3.966   1.116 -0.4701 -0.0221  0.6557
 5252SOL    HW117750   0.896   3.884   1.157 -0.7264  0.1256  1.1286
 5252SOL    HW217751   0.865   4.029   1.189 -1.4844  0.1134  0.4943
 5253SOL     OW17752   8.049   3.099   1.043  0.3833  0.0607  0.8421
 5253SOL    HW117753   8.078   3.030   1.102 -0.2195 -1.3651 -0.4663
 5253SOL    HW217754   8.111   3.096   0.970 -2.6387 -2.9855 -1.9680
 5254SOL     OW17755   0.313   8.364   8.193  0.8543 -0.4491 -0.1323
 5254SOL    HW117756   0.360   8.386   8.274  2.2515  0.9985 -1.2613
 5254SOL    HW217757   0.361   8.410   8.125 -0.6996 -1.0727 -1.7208
 5255SOL     OW17758   3.823   5.320   7.028  0.1936  0.1687 -0.1806
 5255SOL    HW117759   3.915   5.337   7.010  0.2885 -0.0357  0.1239
 5255SOL    HW217760   3.822   5.275   7.112 -0.1646 -0.0857 -0.3197
 5256SOL     OW17761   5.126   1.351   4.456  0.0500 -0.2943  0.1686
 5256SOL    HW117762   5.064   1.321   4.390  1.6538  0.2364 -1.6871
 5256SOL    HW217763   5.211   1.317   4.425  0.9651  0.6968  1.5036
 5257SOL     OW17764   5.706   2.556   7.466 -0.3444  0.3360  0.5652
 5257SOL    HW117765   5.683   2.649   7.475  0.2368  0.6365 -0.7653
 5257SOL    HW217766   5.625   2.515   7.434 -0.0093  0.7908 -0.9189
 5258SOL     OW17767   1.766   5.405   2.616  0.1633  0.0699  0.0021
 5258SOL    HW117768   1.737   5.483   2.664 -2.3033 -0.6097 -0.2252
 5258SOL    HW217769   1.761   5.334   2.679 -3.6995 -0.9466 -1.1498
 5259SOL     OW17770   8.280   4.210   0.345  0.1728 -0.0219  0.2697
 5259SOL    HW117771   8.193   4.239   0.320 -0.0531  0.2182  1.3130
 5259SOL    HW217772   8.317   4.282   0.395  1.9400  0.9184 -2.1787
 5260SOL     OW17773   6.570   6.093   3.801  0.0573  0.3885 -0.4771
 5260SOL    HW117774   6.552   6.132   3.715 -0.5596  1.8571  0.2810
 5260SOL    HW217775   6.498   6.033   3.816 -0.3397  0.8339 -0.5836
 5261SOL     OW17776   8.802   5.916   4.901 -0.9155  0.1638 -0.0688
 5261SOL    HW117777   8.877   5.870   4.937 -0.4801  2.3375  2.1477
 5261SOL    HW217778   8.839   5.991   4.855 -1.6757 -0.2024 -1.3376
 5262SOL     OW17779   5.641   0.401   5.694 -0.5493  0.0352 -1.0215
 5262SOL    HW117780   5.645   0.412   5.789  1.2213  0.0170 -1.0553
 5262SOL    HW217781   5.636   0.490   5.659  1.4720  0.2110 -0.9546
 5263SOL     OW17782   8.520   6.935   1.140 -0.5655 -0.6388  0.6656
 5263SOL    HW117783   8.429   6.909   1.127 -0.7738 -0.6355  1.9758
 5263SOL    HW217784   8.535   7.002   1.073 -1.6636 -0.3257  0.7000
 5264SOL     OW17785   5.525   2.522   3.933 -0.7540  0.0487  0.5963
 5264SOL    HW117786   5.443   2.501   3.889  0.6763  0.4843 -2.6283
 5264SOL    HW217787   5.591   2.471   3.885  1.0848  1.2745  1.6947
 5265SOL     OW17788   5.724   3.456   0.694  0.6679  0.2092 -0.2656
 5265SOL    HW117789   5.753   3.407   0.616 -0.1556 -1.0516  0.1835
 5265SOL    HW217790   5.796   3.517   0.712  0.8198  0.6137 -2.0666
 5266SOL     OW17791   0.895   7.774   2.591 -0.4015  0.3167 -0.5682
 5266SOL    HW117792   0.805   7.768   2.621  0.1189 -1.6978  0.8273
 5266SOL    HW217793   0.946   7.793   2.670  0.4445  1.2649 -1.3001
 5267SOL     OW17794   5.532   5.312   4.303 -0.5320 -0.4267  0.2993
 5267SOL    HW117795   5.627   5.311   4.289 -0.6506 -0.0976 -0.5956
 5267SOL    HW217796   5.521   5.322   4.398  0.3285 -1.2380  0.4965
 5268SOL     OW17797   2.276   3.808   2.741  0.7122 -0.1092  0.3902
 5268SOL    HW117798   2.194   3.827   2.695  1.6979  4.1977 -0.0052
 5268SOL    HW217799   2.250   3.795   2.832 -0.5259 -0.5772 -0.0051
 5269SOL     OW17800   5.909   6.182   5.682 -0.4947  0.9001  0.2116
 5269SOL    HW117801   5.875   6.120   5.617  0.5228  0.5557 -0.0209
 5269SOL    HW217802   5.997   6.150   5.701 -0.8707  0.8210  1.9963
 5270SOL     OW17803   8.829   3.575   1.120  0.6620  0.0966  0.3422
 5270SOL    HW117804   8.883   3.498   1.136  0.4058 -0.3527 -0.8471
 5270SOL    HW217805   8.868   3.616   1.043  0.9440  1.3164  1.0996
 5271SOL     OW17806   8.436   1.842   8.615  0.2825 -0.0467  0.1461
 5271SOL    HW117807   8.413   1.909   8.679  0.4797 -0.5201  0.7158
 5271SOL    HW217808   8.525   1.864   8.587  0.9057 -0.8576  1.3852
 5272SOL     OW17809   1.401   7.604   5.859 -0.3905 -0.0139  0.4110
 5272SOL    HW117810   1.402   7.514   5.826 -0.5038 -0.5524  1.8203
 5272SOL    HW217811   1.477   7.610   5.916  0.8572  1.4675 -1.2948
 5273SOL     OW17812   0.230   7.734   5.966 -0.1234  0.1007  0.1751
 5273SOL    HW117813   0.151   7.766   6.009 -0.4395 -0.2012 -0.1705
 5273SOL    HW217814   0.275   7.813   5.937 -1.3477  0.2404 -1.4725
 5274SOL     OW17815   7.031   6.289   1.339  0.1764 -0.0534 -0.2737
 5274SOL    HW117816   7.109   6.235   1.326 -0.8927 -1.9810  0.9135
 5274SOL    HW217817   6.969   6.257   1.274 -0.0438  0.6640 -0.4229
 5275SOL     OW17818   5.980   0.194   5.488 -0.0241 -0.5122  0.2929
 5275SOL    HW117819   5.982   0.157   5.576 -0.6879 -0.9851  0.1123
 5275SOL    HW217820   5.980   0.118   5.430  1.1186 -0.2057 -0.1462
 5276SOL     OW17821   6.238   0.216   5.321  0.0136  0.6477  0.0401
 5276SOL    HW117822   6.323   0.224   5.362 -0.4144 -0.6256  1.2499
 5276SOL    HW217823   6.180   0.271   5.374 -0.0652  0.9587 -0.3621
 5277SOL     OW17824   4.630   3.979   7.359 -0.0888  0.1694 -0.3648
 5277SOL    HW117825   4.725   3.994   7.368 -0.1071 -0.4728  1.0559
 5277SOL    HW217826   4.590   4.035   7.425 -0.6144 -0.5609 -0.0505
 5278SOL     OW17827   6.924   3.655   5.927  0.0713 -0.4831 -0.6181
 5278SOL    HW117828   6.944   3.588   5.861  1.6185 -1.6777  0.9728
 5278SOL    HW217829   6.834   3.638   5.952  0.4555 -2.0468 -0.2028
 5279SOL     OW17830   7.957   0.203   4.573 -0.1108  0.3542 -0.1968
 5279SOL    HW117831   7.915   0.209   4.659  0.7302  0.6950  0.2053
 5279SOL    HW217832   7.920   0.125   4.533 -1.4370  0.8673 -0.0337
 5280SOL     OW17833   0.902   4.974   8.677  0.0793 -0.5403 -0.1070
 5280SOL    HW117834   0.916   4.885   8.642 -1.2879 -0.2353 -1.5668
 5280SOL    HW217835   0.897   5.029   8.599 -0.0127  0.6820  0.7470
 5281SOL     OW17836   1.444   1.135   7.625 -0.1469  0.4904  0.2509
 5281SOL    HW117837   1.525   1.184   7.613  0.0800  0.5844  1.8341
 5281SOL    HW217838   1.442   1.116   7.719 -0.1146 -2.6748 -0.2547
 5282SOL     OW17839   6.686   1.247   7.955 -0.0974 -0.3424 -0.6482
 5282SOL    HW117840   6.654   1.262   8.044  0.4953  0.6885 -0.5889
 5282SOL    HW217841   6.781   1.261   7.961 -0.0931  0.0998 -1.5045
 5283SOL     OW17842   3.215   0.956   5.195  0.2069  0.2098 -0.0451
 5283SOL    HW117843   3.245   0.872   5.231 -0.2366  0.3227  0.5901
 5283SOL    HW217844   3.149   0.931   5.130  0.4901  0.0447 -0.2766
 5284SOL     OW17845   6.338   4.222   0.238  0.3001  0.0496  0.6239
 5284SOL    HW117846   6.411   4.186   0.288 -1.6528 -1.4875  2.5457
 5284SOL    HW217847   6.309   4.298   0.288 -0.8197 -0.6948  1.1241
 5285SOL     OW17848   1.561   0.948   8.281  0.2773 -0.4649  0.2311
 5285SOL    HW117849   1.601   0.881   8.225 -0.3502 -0.7248  0.0870
 5285SOL    HW217850   1.630   0.971   8.343  1.0093 -0.1181 -0.6880
 5286SOL     OW17851   2.131   8.424   4.697 -0.0044 -0.0660 -0.6444
 5286SOL    HW117852   2.224   8.441   4.685  0.2161 -0.7847 -0.0859
 5286SOL    HW217853   2.114   8.346   4.644  0.0421 -0.7672  0.3367
 5287SOL     OW17854   0.435   1.692   5.800  0.0454 -0.1231  0.0577
 5287SOL    HW117855   0.500   1.646   5.853 -1.3616 -2.0719  0.2088
 5287SOL    HW217856   0.420   1.633   5.725  0.1038  1.3641 -1.1622
 5288SOL     OW17857   6.351   3.117   6.478  0.0353 -0.0755 -0.6287
 5288SOL    HW117858   6.407   3.133   6.402  2.1693  1.9843  1.1998
 5288SOL    HW217859   6.410   3.126   6.553 -2.5936  1.5954  1.4196
 5289SOL     OW17860   5.699   8.482   4.728 -0.0110  0.2697  0.0128
 5289SOL    HW117861   5.732   8.552   4.671 -0.1334  1.2678  1.1416
 5289SOL    HW217862   5.678   8.526   4.810  0.2873 -1.1681  0.8849
 5290SOL     OW17863   5.079   4.002   7.198  1.0339 -0.1708 -0.2776
 5290SOL    HW117864   5.089   4.096   7.188 -0.2350  0.2395  1.7412
 5290SOL    HW217865   5.026   3.976   7.122  0.2661  0.9725 -0.1548
 5291SOL     OW17866   8.177   4.744   7.473  0.3703  0.0466  0.6040
 5291SOL    HW117867   8.225   4.709   7.549  1.6300 -1.0581 -0.6490
 5291SOL    HW217868   8.144   4.666   7.428  2.0699  0.4762 -1.5216
 5292SOL     OW17869   4.494   4.044   7.925 -0.0570 -0.1778 -0.5745
 5292SOL    HW117870   4.526   4.057   7.836 -0.2523  0.6201 -0.5357
 5292SOL    HW217871   4.545   4.104   7.979 -1.0809  0.5734 -0.4038
 5293SOL     OW17872   4.311   2.757   0.634  0.0617  0.0115  0.0539
 5293SOL    HW117873   4.391   2.796   0.670  0.0344  0.1911 -0.0756
 5293SOL    HW217874   4.340   2.676   0.591  0.0764 -0.2632  0.5774
 5294SOL     OW17875   3.258   4.939   4.777 -0.0742  0.3571  0.2188
 5294SOL    HW117876   3.222   4.930   4.865 -1.4515  0.7509 -0.2862
 5294SOL    HW217877   3.182   4.957   4.721  0.6370 -0.8844 -1.2185
 5295SOL     OW17878   1.569   4.442   7.685 -0.2299  0.8011  0.0263
 5295SOL    HW117879   1.545   4.385   7.612 -0.7900  1.6239 -0.4539
 5295SOL    HW217880   1.534   4.398   7.762  1.3944 -0.6906 -0.0083
 5296SOL     OW17881   4.636   0.857   6.008  0.0868  0.1195  0.0915
 5296SOL    HW117882   4.728   0.835   5.993 -0.0712 -1.2724  0.9652
 5296SOL    HW217883   4.631   0.883   6.099 -0.0111  2.5442 -0.5453
 5297SOL     OW17884   2.138   4.920   8.343  0.4356  0.4118 -0.4045
 5297SOL    HW117885   2.221   4.956   8.375  1.1174 -0.8063 -0.7139
 5297SOL    HW217886   2.105   4.868   8.417 -0.0459  0.8511 -0.3018
 5298SOL     OW17887   8.394   2.455   5.717 -0.1155 -0.8071  0.1193
 5298SOL    HW117888   8.383   2.364   5.688  2.5507 -0.6726 -1.7329
 5298SOL    HW217889   8.485   2.475   5.694  0.3060  1.3974  3.2441
 5299SOL     OW17890   7.366   3.530   2.322 -0.0940  0.4130 -0.1600
 5299SOL    HW117891   7.304   3.588   2.278  1.8409  1.9176 -1.0173
 5299SOL    HW217892   7.422   3.496   2.252  0.5860 -0.2723  0.6813
 5300SOL     OW17893   6.510   2.142   6.591  0.3388 -1.0657  0.0015
 5300SOL    HW117894   6.539   2.184   6.510 -0.2475 -1.0201 -0.1881
 5300SOL    HW217895   6.422   2.111   6.572  0.3691 -1.4557  0.4814
 5301SOL     OW17896   7.762   2.093   0.113 -0.1084  0.2442 -0.1151
 5301SOL    HW117897   7.758   2.175   0.162  0.5611 -0.4052  1.0512
 5301SOL    HW217898   7.709   2.032   0.164  0.2879 -0.3410 -0.3947
 5302SOL     OW17899   0.494   6.516   5.197 -0.2803  0.2249 -0.3799
 5302SOL    HW117900   0.494   6.464   5.117 -0.3195 -1.3007  0.5611
 5302SOL    HW217901   0.566   6.479   5.249  0.7824  2.2309 -0.3381
 5303SOL     OW17902   2.951   6.503   2.185 -0.1036 -0.1649 -0.0577
 5303SOL    HW117903   2.979   6.422   2.227 -0.8897 -0.2358  0.3510
 5303SOL    HW217904   2.878   6.478   2.129  0.3104  0.0966 -0.7209
 5304SOL     OW17905   8.031   5.535   2.073  0.4240 -0.3419 -0.3392
 5304SOL    HW117906   8.003   5.478   2.002 -2.3073  0.7912 -0.2823
 5304SOL    HW217907   8.004   5.623   2.046  0.1401  0.2500  1.6884
 5305SOL     OW17908   3.005   0.020   7.453  0.1475 -0.2327 -0.1997
 5305SOL    HW117909   2.956   0.027   7.535  2.6086  1.0076  1.2962
 5305SOL    HW217910   2.977   0.096   7.403 -0.8263 -0.5846 -0.2159
 5306SOL     OW17911   4.006   1.045   5.948  0.3711  0.8719 -0.3975
 5306SOL    HW117912   3.992   1.119   6.007 -0.9604  0.5415 -0.2720
 5306SOL    HW217913   4.051   1.083   5.872  0.8913  1.5465  0.2363
 5307SOL     OW17914   0.170   0.035   1.751 -0.0420 -0.4020 -0.6116
 5307SOL    HW117915   0.191  -0.057   1.766  0.5407 -0.0923  0.6036
 5307SOL    HW217916   0.148   0.070   1.837 -0.7192  0.4913 -1.1252
 5308SOL     OW17917   6.017   5.003   5.976  0.1212 -0.4814  0.2177
 5308SOL    HW117918   5.979   4.929   6.024 -1.4344  0.2791  0.1965
 5308SOL    HW217919   6.098   5.023   6.023 -0.0230 -1.4591  0.9120
 5309SOL     OW17920   4.825   5.123   5.858 -0.1428  0.0883 -0.4245
 5309SOL    HW117921   4.804   5.216   5.843  1.6127  0.7428  0.8282
 5309SOL    HW217922   4.798   5.079   5.777 -1.9551  1.5080 -0.6520
 5310SOL     OW17923   5.171   7.994   2.284 -0.0358  0.8100 -0.0598
 5310SOL    HW117924   5.077   7.976   2.286  0.0094  0.6090  0.1745
 5310SOL    HW217925   5.196   7.977   2.193 -0.1488  0.4908 -0.0313
 5311SOL     OW17926   4.890   3.550   4.767  0.1739 -0.1663  0.4527
 5311SOL    HW117927   4.829   3.486   4.729  0.5194 -0.0270 -0.3532
 5311SOL    HW217928   4.972   3.536   4.719  0.1504  1.1327  0.0155
 5312SOL     OW17929   3.562   3.167   1.962 -0.3264 -0.8087  0.2599
 5312SOL    HW117930   3.589   3.217   1.885 -0.0894 -2.1393 -0.5401
 5312SOL    HW217931   3.627   3.190   2.029 -1.3397  1.4495  0.5589
 5313SOL     OW17932   5.418   1.849   4.996  0.1296 -0.1708  1.2027
 5313SOL    HW117933   5.344   1.895   4.957  0.5497 -0.9447 -0.5908
 5313SOL    HW217934   5.383   1.765   5.024  0.4922 -0.9684 -0.6027
 5314SOL     OW17935   6.061   4.803   3.413  0.7682  0.0045 -0.3573
 5314SOL    HW117936   6.027   4.776   3.498  1.0574  1.2428  0.1715
 5314SOL    HW217937   6.027   4.891   3.400  1.8556  0.3644 -0.8801
 5315SOL     OW17938   0.239   5.472   1.280 -0.2716 -0.0458  0.0044
 5315SOL    HW117939   0.175   5.483   1.350 -1.7516 -0.6469 -1.1899
 5315SOL    HW217940   0.274   5.384   1.292 -0.0637  0.0799  0.3346
 5316SOL     OW17941   1.733   0.933   2.633  0.9397  0.1919 -0.0490
 5316SOL    HW117942   1.654   0.879   2.627 -0.2189  1.8199  0.0378
 5316SOL    HW217943   1.701   1.023   2.637  2.6567  0.7925  3.2922
 5317SOL     OW17944   6.211   8.831   0.730  0.0211  0.3882 -0.5874
 5317SOL    HW117945   6.295   8.796   0.700 -1.0181 -2.6490 -0.2994
 5317SOL    HW217946   6.162   8.848   0.650  0.5572  1.2983 -0.7344
 5318SOL     OW17947   8.740   3.299   5.180  0.2064 -0.8982 -0.2666
 5318SOL    HW117948   8.701   3.312   5.266  0.1226 -2.0213 -0.1246
 5318SOL    HW217949   8.677   3.339   5.119  0.8839  1.0678  0.2580
 5319SOL     OW17950   7.315   4.232   6.373  0.5098 -0.2986  0.3680
 5319SOL    HW117951   7.270   4.254   6.291  0.3747 -1.7499  0.0222
 5319SOL    HW217952   7.342   4.141   6.361 -0.1248 -0.7592  2.2190
 5320SOL     OW17953   3.954   8.832   2.447  0.0461  0.2724 -0.2551
 5320SOL    HW117954   3.858   8.830   2.456  0.0296  0.6702 -0.3130
 5320SOL    HW217955   3.968   8.873   2.362  0.2627 -0.2184 -0.4582
 5321SOL     OW17956   0.028   7.157   8.118 -0.0557  0.1908  0.2723
 5321SOL    HW117957  -0.055   7.166   8.164 -0.9840 -1.0811 -1.0280
 5321SOL    HW217958   0.072   7.084   8.162 -1.2160 -1.4372 -1.1312
 5322SOL     OW17959   7.272   5.857   0.553  0.2183 -0.2603  0.3068
 5322SOL    HW117960   7.265   5.917   0.628  0.3865 -0.1691  0.2491
 5322SOL    HW217961   7.348   5.888   0.504 -0.3167  0.1164 -0.2902
 5323SOL     OW17962   8.798   0.699   2.060  0.1123 -0.2664 -0.0942
 5323SOL    HW117963   8.788   0.687   2.154  1.6774 -0.5231  0.0591
 5323SOL    HW217964   8.713   0.734   2.031 -0.1469  0.5052  1.5114
 5324SOL     OW17965   0.099   7.578   2.339 -0.4226 -0.4724 -0.0158
 5324SOL    HW117966   0.065   7.519   2.272  0.0921 -0.4337 -0.3223
 5324SOL    HW217967   0.079   7.666   2.306 -0.2701 -0.4560 -0.0672
 5325SOL     OW17968   1.801   4.162   3.607  0.1160 -0.3388 -0.0399
 5325SOL    HW117969   1.735   4.115   3.659  1.3926 -0.3176  1.7077
 5325SOL    HW217970   1.885   4.130   3.641  1.0204  0.9641 -0.9489
 5326SOL     OW17971   4.788   3.133   3.818  0.1414  0.0109 -0.6232
 5326SOL    HW117972   4.726   3.125   3.891  0.5884  1.2825 -0.0663
 5326SOL    HW217973   4.852   3.063   3.833  0.4131  0.4605  0.4132
 5327SOL     OW17974   8.767   6.426   8.044  0.7047  0.4255 -0.2966
 5327SOL    HW117975   8.846   6.448   7.995  0.0484 -1.5683 -2.4585
 5327SOL    HW217976   8.787   6.449   8.134  3.1004  1.5556 -1.0462
 5328SOL     OW17977   4.882   0.811   5.926 -0.2971 -0.1853 -0.1239
 5328SOL    HW117978   4.949   0.750   5.955 -0.3597 -0.1058  0.1840
 5328SOL    HW217979   4.906   0.894   5.966  0.2526  0.1963 -1.1983
 5329SOL     OW17980   3.951   1.706   2.741 -0.3321  0.3644 -0.2169
 5329SOL    HW117981   3.878   1.767   2.735  0.5044  1.3988 -0.3327
 5329SOL    HW217982   3.911   1.622   2.760 -1.3897  1.3949  2.6945
 5330SOL     OW17983   6.136   4.978   6.713  0.3254  0.1069  0.4399
 5330SOL    HW117984   6.170   5.066   6.724  1.2750 -0.0384 -1.0795
 5330SOL    HW217985   6.097   4.977   6.626 -0.9618 -0.5803  0.9981
 5331SOL     OW17986   5.641   6.822   7.650  0.3075  0.0574 -0.0391
 5331SOL    HW117987   5.651   6.728   7.635  2.0796  0.2834 -0.4721
 5331SOL    HW217988   5.607   6.855   7.567 -0.3503 -0.1918  0.1237
 5332SOL     OW17989   0.750   7.854   1.452  0.0383 -0.2108  0.2891
 5332SOL    HW117990   0.833   7.888   1.418 -1.1341  1.0845 -1.4848
 5332SOL    HW217991   0.755   7.869   1.546  2.5130 -1.8432  0.5201
 5333SOL     OW17992   7.879   3.978   6.939 -0.2868  0.3297  0.2377
 5333SOL    HW117993   7.957   3.923   6.947 -0.4185  0.3190  1.6048
 5333SOL    HW217994   7.912   4.067   6.941 -0.2390  0.3192 -0.0523
 5334SOL     OW17995   0.805   6.818   0.723 -0.4342 -0.0933  0.6105
 5334SOL    HW117996   0.884   6.803   0.672 -1.6801 -1.0489 -1.1402
 5334SOL    HW217997   0.738   6.841   0.658 -1.6277  0.6066  2.0223
 5335SOL     OW17998   2.303   5.677   8.841 -0.0592  0.5366  0.0831
 5335SOL    HW117999   2.331   5.709   8.755  0.2635 -0.7032 -0.2938
 5335SOL    HW218000   2.384   5.645   8.882 -0.6169 -1.7163 -0.4229
 5336SOL     OW18001   8.265   1.628   6.755  0.4419  0.0865 -0.0196
 5336SOL    HW118002   8.190   1.664   6.707 -0.8251 -1.6123  0.6143
 5336SOL    HW218003   8.243   1.642   6.847  1.3558  0.3938  0.1621
 5337SOL     OW18004   2.278   0.648   8.105 -0.5767 -0.0307  0.2769
 5337SOL    HW118005   2.335   0.724   8.118 -1.3986  0.3343  2.1571
 5337SOL    HW218006   2.310   0.583   8.167 -0.3141 -1.0052 -0.8383
 5338SOL     OW18007   5.874   2.318   1.925  0.2331 -0.3812  0.2450
 5338SOL    HW118008   5.926   2.241   1.946  0.5486 -0.1004  0.5156
 5338SOL    HW218009   5.786   2.285   1.912  0.5142 -0.8872 -0.4115
 5339SOL     OW18010   2.991   3.846   0.046  0.4581  0.6530  0.4923
 5339SOL    HW118011   3.011   3.914  -0.018  1.0652 -0.1955 -0.2385
 5339SOL    HW218012   3.041   3.871   0.124  1.9212  0.2532 -0.2787
 5340SOL     OW18013   5.778   7.808   6.517  0.2990  0.1961 -0.7983
 5340SOL    HW118014   5.763   7.868   6.444  1.5679  1.3700 -0.1417
 5340SOL    HW218015   5.872   7.791   6.515  0.3967  0.4518  0.7211
 5341SOL     OW18016   0.977   2.728   2.333 -0.2317  0.1089  0.1264
 5341SOL    HW118017   0.906   2.774   2.378 -0.1952 -0.6909  1.0333
 5341SOL    HW218018   1.057   2.764   2.372 -0.1094  1.1439 -1.0264
 5342SOL     OW18019   2.113   5.869   5.391  0.3747  0.3195  0.0636
 5342SOL    HW118020   2.207   5.862   5.411  0.2586 -0.6711  0.3167
 5342SOL    HW218021   2.087   5.954   5.427  1.2246  0.7177 -0.2367
 5343SOL     OW18022   4.423   1.919   4.543 -0.0451 -0.2587 -0.3081
 5343SOL    HW118023   4.487   1.896   4.475 -0.9402  1.2885 -1.7525
 5343SOL    HW218024   4.476   1.941   4.619  1.0674 -0.5538 -0.9637
 5344SOL     OW18025   8.377   0.077   1.716  0.6009  0.0571 -0.2195
 5344SOL    HW118026   8.296   0.028   1.725 -0.4284  1.8501  0.6980
 5344SOL    HW218027   8.446   0.013   1.735 -0.5806 -1.4409 -0.8062
 5345SOL     OW18028   3.538   4.739   5.003  0.4920 -0.2769 -0.0566
 5345SOL    HW118029   3.620   4.777   5.035 -0.2708  1.2098  0.2490
 5345SOL    HW218030   3.506   4.802   4.939 -0.7748 -0.4443  0.3829
 5346SOL     OW18031   7.627   6.479   5.003  0.0926  0.1525  0.1714
 5346SOL    HW118032   7.640   6.385   5.006 -1.1433 -0.1304 -1.8896
 5346SOL    HW218033   7.532   6.491   4.998  0.1777  1.5563  1.1818
 5347SOL     OW18034   5.425   2.092   7.731  0.3981  0.3189 -0.2234
 5347SOL    HW118035   5.507   2.088   7.781  0.6622  0.0957 -0.6654
 5347SOL    HW218036   5.366   2.034   7.779  0.8946 -0.5168 -0.5972
 5348SOL     OW18037   4.462   5.241   2.696  0.1780  0.6365 -0.6126
 5348SOL    HW118038   4.501   5.214   2.779 -0.4312 -1.1424 -0.8637
 5348SOL    HW218039   4.387   5.295   2.721 -0.2233 -0.1972  0.0098
 5349SOL     OW18040   1.635   6.744   2.571  0.6218 -0.1264  0.4629
 5349SOL    HW118041   1.614   6.746   2.665  1.4457  0.9238  0.6520
 5349SOL    HW218042   1.586   6.816   2.534  0.8037 -0.1327  0.2059
 5350SOL     OW18043   3.208   3.397   2.275 -0.0845  0.5495 -0.1098
 5350SOL    HW118044   3.176   3.315   2.311  2.0880 -0.4541 -0.2678
 5350SOL    HW218045   3.212   3.381   2.180 -1.4173  1.5317 -0.3535
 5351SOL     OW18046   3.334   7.892   6.929  0.5686  0.5532 -0.0420
 5351SOL    HW118047   3.373   7.812   6.894  0.6723  0.4574  0.2879
 5351SOL    HW218048   3.385   7.911   7.008 -1.1596 -0.5778  1.4278
 5352SOL     OW18049   6.838   1.077   2.785 -0.2978  0.2958 -0.3166
 5352SOL    HW118050   6.885   1.160   2.778 -0.1868  0.2136 -0.5548
 5352SOL    HW218051   6.745   1.103   2.782 -0.3282  0.6401  2.1912
 5353SOL     OW18052   3.254   7.562   3.386  0.2695  0.4135  0.1299
 5353SOL    HW118053   3.180   7.506   3.408  0.7241  0.2511  1.3502
 5353SOL    HW218054   3.241   7.640   3.439  0.1149  1.1036 -0.8909
 5354SOL     OW18055   6.676   5.060   6.212  0.0286  0.0239  0.4306
 5354SOL    HW118056   6.652   4.980   6.165  2.2627 -0.0988 -0.6525
 5354SOL    HW218057   6.697   5.123   6.143 -0.6737  1.2325  1.2800
 5355SOL     OW18058   6.302   7.203   0.269  0.8956  0.1003  0.1569
 5355SOL    HW118059   6.267   7.214   0.181 -1.9621  1.4379  1.3360
 5355SOL    HW218060   6.299   7.108   0.284 -0.3468  0.0010 -0.5617
 5356SOL     OW18061   5.075   6.627   3.449 -0.2007  0.4151 -0.5447
 5356SOL    HW118062   5.153   6.582   3.416 -0.9448 -1.1827 -0.2014
 5356SOL    HW218063   5.101   6.659   3.536 -0.4509 -1.7757  0.4007
 5357SOL     OW18064   0.334   7.987   0.291  0.4288 -0.1123 -0.0555
 5357SOL    HW118065   0.245   7.983   0.255 -0.2506  1.0412  1.3943
 5357SOL    HW218066   0.345   8.078   0.317  0.9650 -0.7975  2.3189
 5358SOL     OW18067   1.234   0.842   3.008  0.5266 -0.0184  0.5768
 5358SOL    HW118068   1.251   0.767   3.065  2.2601 -1.9351 -2.1850
 5358SOL    HW218069   1.196   0.804   2.929 -0.2567  2.2657 -0.2297
 5359SOL     OW18070   1.579   7.723   8.409 -0.2302  0.6483  0.2927
 5359SOL    HW118071   1.650   7.754   8.352  0.7113 -0.9070  0.5668
 5359SOL    HW218072   1.530   7.662   8.355  1.1874 -1.5130  1.3273
 5360SOL     OW18073   1.222   8.757   8.397 -0.2495  0.2702  0.0043
 5360SOL    HW118074   1.143   8.769   8.450  0.3417  1.3227  0.6887
 5360SOL    HW218075   1.294   8.760   8.461  0.4062  0.3172 -0.7158
 5361SOL     OW18076   3.684   5.838   5.791  0.1394 -0.1406 -0.5377
 5361SOL    HW118077   3.672   5.810   5.701  1.4177 -2.3301 -0.0980
 5361SOL    HW218078   3.718   5.761   5.836 -0.6449  0.8335  1.8791
 5362SOL     OW18079   3.065   2.923   3.999 -0.5786  0.2633 -0.0206
 5362SOL    HW118080   2.997   2.874   4.046 -0.7211  0.7690  0.3022
 5362SOL    HW218081   3.147   2.882   4.028 -0.7450 -0.4159 -0.4911
 5363SOL     OW18082   7.395   0.227   1.777  0.1862 -0.1589  0.2278
 5363SOL    HW118083   7.403   0.210   1.683  0.5033 -0.1468  0.2520
 5363SOL    HW218084   7.334   0.301   1.782 -0.5094 -0.7141  0.0796
 5364SOL     OW18085   0.008   8.845   4.438  0.5035  0.1174 -0.7164
 5364SOL    HW118086   0.057   8.909   4.386 -2.7136  3.5630 -0.0039
 5364SOL    HW218087  -0.084   8.864   4.418 -0.7266 -2.1687  2.0558
 5365SOL     OW18088   7.713   3.407   7.502  0.1358  0.3363 -0.5590
 5365SOL    HW118089   7.772   3.453   7.442 -0.8427  0.1952 -1.6482
 5365SOL    HW218090   7.764   3.330   7.530  1.0942  1.0971 -0.1426
 5366SOL     OW18091   8.426   6.161   1.050  0.0531 -0.5640  0.3893
 5366SOL    HW118092   8.369   6.208   1.111 -0.6978 -1.3055  0.2842
 5366SOL    HW218093   8.514   6.195   1.066 -0.3428  0.1945  0.9539
 5367SOL     OW18094   0.931   5.621   2.873  0.3640 -0.3928  0.2568
 5367SOL    HW118095   0.897   5.693   2.926 -1.8576 -1.8230  0.8816
 5367SOL    HW218096   0.945   5.659   2.786 -1.1508  0.7070  0.4673
 5368SOL     OW18097   8.522   5.570   1.857 -0.1446  0.1008 -0.7614
 5368SOL    HW118098   8.562   5.651   1.890 -0.8811  0.2784 -0.2911
 5368SOL    HW218099   8.469   5.538   1.930 -0.0248 -0.7023 -1.0145
 5369SOL     OW18100   1.952   8.850   6.246  0.0298 -0.3538 -0.7507
 5369SOL    HW118101   2.042   8.833   6.276 -0.8635 -0.4595  2.0998
 5369SOL    HW218102   1.898   8.790   6.297 -1.9345  1.7381 -0.2287
 5370SOL     OW18103   4.809   5.888   5.369 -0.2004 -0.1969  0.2461
 5370SOL    HW118104   4.763   5.890   5.453 -0.1081  0.0491  0.2925
 5370SOL    HW218105   4.865   5.965   5.371 -0.4388 -0.0093 -0.1813
 5371SOL     OW18106   6.361   3.954   3.376  0.8020  0.5617 -0.5793
 5371SOL    HW118107   6.422   3.987   3.310  1.6358 -0.2089 -0.2087
 5371SOL    HW218108   6.340   3.865   3.348 -0.3883  0.9069 -0.8490
 5372SOL     OW18109   8.610   0.203   3.398 -0.4285  0.6799 -0.0551
 5372SOL    HW118110   8.546   0.161   3.342 -0.5386  1.8201 -0.8235
 5372SOL    HW218111   8.629   0.287   3.355  1.6214  0.3549  0.1090
 5373SOL     OW18112   4.796   3.841   7.859 -0.1516  0.1372  0.8302
 5373SOL    HW118113   4.827   3.753   7.835 -0.0043  0.6866 -1.2102
 5373SOL    HW218114   4.874   3.896   7.857 -0.1505  0.2565  2.6466
 5374SOL     OW18115   6.373   5.310   2.921  0.5296 -0.3590 -0.2643
 5374SOL    HW118116   6.353   5.383   2.862  0.7444  0.6146  0.8111
 5374SOL    HW218117   6.454   5.272   2.887  2.6783  2.4158  1.2860
 5375SOL     OW18118   7.654   0.858   0.418  0.5976 -0.0623 -0.4551
 5375SOL    HW118119   7.564   0.825   0.419  0.8483 -0.9049 -2.1964
 5375SOL    HW218120   7.651   0.936   0.361  1.2058 -0.9822 -1.8112
 5376SOL     OW18121   0.518   3.201   5.690  0.1542 -0.3016  0.2973
 5376SOL    HW118122   0.488   3.199   5.599  0.3091 -3.3883  0.2130
 5376SOL    HW218123   0.603   3.245   5.687  1.1347 -2.1475 -1.4671
 5377SOL     OW18124   2.274   7.431   1.797 -0.2556  0.1073 -0.1757
 5377SOL    HW118125   2.274   7.380   1.878 -0.6688 -0.6152 -0.6186
 5377SOL    HW218126   2.276   7.522   1.826  0.5366 -0.1531  0.6246
 5378SOL     OW18127   0.794   1.005   6.532  0.0118  0.2285 -0.5153
 5378SOL    HW118128   0.858   1.052   6.586 -1.7088  3.4766 -1.0882
 5378SOL    HW218129   0.727   0.976   6.594 -1.0555  2.3922 -0.5679
 5379SOL     OW18130   1.572   4.343   0.149  0.7209  0.1015 -0.6635
 5379SOL    HW118131   1.492   4.323   0.198  1.4904  0.6459  0.8748
 5379SOL    HW218132   1.559   4.300   0.064 -0.5297 -1.1203  0.0970
 5380SOL     OW18133   1.129   4.393   8.859  0.1442  0.1243 -0.3211
 5380SOL    HW118134   1.037   4.368   8.853 -0.4733  1.0837  2.8627
 5380SOL    HW218135   1.132   4.481   8.821 -0.8156  0.9811  1.4177
 5381SOL     OW18136   7.618   3.842   3.664  0.0751 -0.6107  0.5342
 5381SOL    HW118137   7.565   3.904   3.615  0.6319 -0.1156  0.5541
 5381SOL    HW218138   7.554   3.784   3.706 -0.5113  0.6663  1.4737
 5382SOL     OW18139   1.988   1.149   3.221 -0.3014 -0.4298  0.3096
 5382SOL    HW118140   2.082   1.159   3.207 -0.1619 -0.3543  1.1908
 5382SOL    HW218141   1.947   1.210   3.160  0.1992 -0.7951 -0.4018
 5383SOL     OW18142   2.553   2.830   2.759 -0.9905 -0.4515 -0.1334
 5383SOL    HW118143   2.600   2.821   2.842 -3.0157  0.1551  1.1509
 5383SOL    HW218144   2.552   2.924   2.742 -1.5697 -0.4691 -0.2248
 5384SOL     OW18145   3.614   4.989   4.792  0.3008  0.5940 -0.4939
 5384SOL    HW118146   3.568   5.009   4.710 -0.3210 -0.8078 -0.5081
 5384SOL    HW218147   3.547   5.002   4.860  0.5979  0.9800 -0.2673
 5385SOL     OW18148   5.324   2.341   5.508  0.4338 -0.2228  0.0078
 5385SOL    HW118149   5.278   2.424   5.494 -1.1530 -1.2822 -1.4871
 5385SOL    HW218150   5.389   2.337   5.437  0.1916 -0.4671 -0.2003
 5386SOL     OW18151   7.448   6.741   2.514 -0.0106 -0.2662  0.2540
 5386SOL    HW118152   7.474   6.656   2.480 -1.1895 -0.9527  0.9977
 5386SOL    HW218153   7.395   6.721   2.592  1.2292  1.1971  1.5402
 5387SOL     OW18154   3.928   1.863   3.613  0.5587 -0.3842 -0.6169
 5387SOL    HW118155   3.921   1.778   3.657  0.4317 -0.1243 -0.1276
 5387SOL    HW218156   3.995   1.910   3.662 -1.2740  0.8268  0.8519
 5388SOL     OW18157   0.480   6.628   3.674 -0.2611  0.0983 -0.4924
 5388SOL    HW118158   0.564   6.625   3.629 -0.1778  2.3602 -0.6093
 5388SOL    HW218159   0.419   6.583   3.616  0.3307  0.8678 -1.7461
 5389SOL     OW18160   8.243   7.288   3.625 -0.2781  0.1073  0.1801
 5389SOL    HW118161   8.240   7.195   3.602 -1.4314  0.0709  0.3928
 5389SOL    HW218162   8.333   7.314   3.609 -0.5554 -0.3383 -2.7147
 5390SOL     OW18163   7.422   3.837   1.204  0.2682 -0.2890 -0.1668
 5390SOL    HW118164   7.400   3.886   1.125  0.0597 -0.8805 -0.4768
 5390SOL    HW218165   7.513   3.860   1.221 -0.2060  1.2840  0.4788
 5391SOL     OW18166   7.980   1.010   2.574 -0.0623 -0.3274 -0.0654
 5391SOL    HW118167   7.889   1.030   2.554 -0.0294  0.8153  0.8648
 5391SOL    HW218168   7.978   0.920   2.605 -1.0747  0.0993  1.1678
 5392SOL     OW18169   0.496   0.462   5.129  0.2485  0.1054 -0.0111
 5392SOL    HW118170   0.571   0.487   5.183  0.0950 -2.0781  1.3078
 5392SOL    HW218171   0.430   0.529   5.149  1.4763  1.5281 -0.4973
 5393SOL     OW18172   4.450   0.313   5.049 -0.1493  0.6083 -0.7833
 5393SOL    HW118173   4.472   0.309   5.142 -0.9458 -0.5856 -0.6278
 5393SOL    HW218174   4.484   0.398   5.020 -2.3404  2.2977  1.2229
 5394SOL     OW18175   7.730   8.639   8.353 -0.4650 -0.5011 -0.3307
 5394SOL    HW118176   7.669   8.566   8.340 -0.5363 -0.7918  1.4785
 5394SOL    HW218177   7.803   8.619   8.295  0.2869 -2.9248  1.2794
 5395SOL     OW18178   6.654   8.700   4.926 -0.1042  1.0474 -0.1671
 5395SOL    HW118179   6.676   8.774   4.869 -1.0221  0.7892 -0.8588
 5395SOL    HW218180   6.679   8.622   4.876 -0.1789  0.8439  0.1100
 5396SOL     OW18181   8.034   3.143   7.919 -0.4645 -0.1432 -0.2214
 5396SOL    HW118182   8.107   3.123   7.977 -0.4279 -0.4611 -0.3777
 5396SOL    HW218183   7.990   3.217   7.961 -1.8827 -1.8481  1.4903
 5397SOL     OW18184   8.305   7.172   0.491 -0.9038  0.1717  0.0450
 5397SOL    HW118185   8.287   7.192   0.583  1.0598  0.2416  0.4575
 5397SOL    HW218186   8.296   7.077   0.485  1.1735 -0.1196  0.8917
 5398SOL     OW18187   5.757   8.482   5.673  0.0396 -0.3704  0.4131
 5398SOL    HW118188   5.815   8.527   5.612  2.9358 -1.0101  2.4951
 5398SOL    HW218189   5.805   8.403   5.698 -0.8603 -0.0592  3.5910
 5399SOL     OW18190   6.598   1.698   4.076 -0.2619  0.0999  0.1533
 5399SOL    HW118191   6.600   1.660   3.988 -1.3233 -1.4519  0.7558
 5399SOL    HW218192   6.683   1.678   4.113 -0.5112 -1.0096  0.1599
 5400SOL     OW18193   4.002   0.316   2.405 -0.1843  0.7478  0.4612
 5400SOL    HW118194   4.047   0.261   2.341 -2.6497 -1.6599  0.6256
 5400SOL    HW218195   4.039   0.290   2.489 -0.6267  0.0684  0.4497
 5401SOL     OW18196   3.605   6.818   8.228  0.1848  0.4326 -0.5605
 5401SOL    HW118197   3.566   6.808   8.141 -1.2695  0.0558  0.0987
 5401SOL    HW218198   3.683   6.763   8.226 -1.5060 -2.1387 -0.6667
 5402SOL     OW18199   8.281   2.218   6.246  0.5542  0.8821 -0.1548
 5402SOL    HW118200   8.238   2.301   6.228 -0.3668  0.5742  0.5024
 5402SOL    HW218201   8.351   2.212   6.181 -0.1566  1.5895 -1.0125
 5403SOL     OW18202   8.819   7.765   3.096 -0.0437  0.2319 -0.2302
 5403SOL    HW118203   8.729   7.794   3.113 -0.1070 -0.3184  0.4142
 5403SOL    HW218204   8.812   7.714   3.015  0.1360  2.2654 -1.5946
 5404SOL     OW18205   0.044   5.523   4.511 -0.2309 -0.2745  0.1906
 5404SOL    HW118206   0.035   5.549   4.419 -0.3967  1.7789  0.7242
 5404SOL    HW218207  -0.022   5.575   4.557  2.8447  2.4168  2.0331
 5405SOL     OW18208   2.185   6.116   0.139  0.2167 -0.0629 -0.3548
 5405SOL    HW118209   2.214   6.144   0.226  0.2292  0.4304 -0.5156
 5405SOL    HW218210   2.098   6.153   0.129  0.5873  0.6692 -0.9232
 5406SOL     OW18211   0.300   1.254   0.126 -0.0854 -0.1650  0.3123
 5406SOL    HW118212   0.205   1.269   0.123 -0.0892  0.3052  1.7922
 5406SOL    HW218213   0.330   1.307   0.199  1.2634 -0.6469  0.1313
 5407SOL     OW18214   4.716   2.533   4.911  0.0782 -0.6152 -0.4289
 5407SOL    HW118215   4.627   2.565   4.893 -0.2500 -1.9684 -1.3348
 5407SOL    HW218216   4.748   2.502   4.827  2.4412  2.1427 -0.7225
 5408SOL     OW18217   6.977   0.224   2.522  0.3975  0.3395 -0.3259
 5408SOL    HW118218   6.990   0.301   2.579  0.7616  0.5467 -0.6855
 5408SOL    HW218219   6.915   0.254   2.456 -0.2692  0.0031  0.1331
 5409SOL     OW18220   2.556   4.787   0.830  0.1679  0.1638  0.7888
 5409SOL    HW118221   2.473   4.743   0.811  0.8287 -1.5137  1.5932
 5409SOL    HW218222   2.604   4.783   0.747 -0.2711  0.5036  0.5149
 5410SOL     OW18223   8.835   3.965   3.455 -0.0854 -0.2056 -0.0165
 5410SOL    HW118224   8.820   4.059   3.445  0.8206 -0.0153  0.3321
 5410SOL    HW218225   8.928   3.953   3.435  0.1659 -0.7982  1.4124
 5411SOL     OW18226   7.820   6.287   4.725  0.5371  0.1041 -0.2766
 5411SOL    HW118227   7.822   6.351   4.653 -1.8314  0.2344 -0.3079
 5411SOL    HW218228   7.727   6.275   4.744  0.9842 -2.1623  0.8208
 5412SOL     OW18229   0.325   3.006   2.932 -0.2472  0.8662  0.9847
 5412SOL    HW118230   0.304   3.085   2.881 -0.3682 -0.3434 -0.9360
 5412SOL    HW218231   0.374   3.039   3.008  1.0735  2.6736 -0.5419
 5413SOL     OW18232   7.933   1.768   3.570  0.4361  0.1118 -0.0257
 5413SOL    HW118233   7.975   1.799   3.490 -0.6133 -0.6896 -0.9026
 5413SOL    HW218234   7.854   1.821   3.578  2.1846  2.6179  2.3888
 5414SOL     OW18235   5.732   5.964   3.941  0.4560  0.0754 -0.2291
 5414SOL    HW118236   5.719   6.058   3.950 -1.4585 -0.2234  0.6764
 5414SOL    HW218237   5.687   5.941   3.860  1.5536  0.0248 -0.8408
 5415SOL     OW18238   5.479   6.683   3.901 -0.5030  0.1076 -0.2338
 5415SOL    HW118239   5.477   6.607   3.842 -1.7705 -0.3765  0.3924
 5415SOL    HW218240   5.405   6.737   3.873 -1.3049 -0.2665  1.0497
 5416SOL     OW18241   0.929   8.057   1.515  0.0705 -0.6087  0.3546
 5416SOL    HW118242   0.914   8.019   1.601  0.1241 -0.4007  0.4573
 5416SOL    HW218243   0.925   8.152   1.530 -2.8971 -0.5079 -0.3490
 5417SOL     OW18244   6.428   0.737   5.139  0.2839  0.3192  0.4315
 5417SOL    HW118245   6.471   0.820   5.160  2.5787  0.0453 -2.4156
 5417SOL    HW218246   6.387   0.753   5.054 -0.7509 -0.9841  0.6647
 5418SOL     OW18247   4.503   1.274   8.796  0.5495  0.7316  0.0050
 5418SOL    HW118248   4.465   1.275   8.883  2.1100  0.1610  0.7333
 5418SOL    HW218249   4.448   1.334   8.745 -0.9865  0.3127  1.0902
 5419SOL     OW18250   0.070   1.952   0.534 -0.7719  0.5708 -0.1364
 5419SOL    HW118251   0.018   2.010   0.589 -1.3015  0.4899 -0.5380
 5419SOL    HW218252   0.070   1.868   0.582 -2.6741 -0.0015 -1.0291
 5420SOL     OW18253   5.477   8.744   5.371 -0.2798  0.5432 -0.2364
 5420SOL    HW118254   5.416   8.810   5.404 -0.9710 -0.6096  0.8548
 5420SOL    HW218255   5.464   8.746   5.276 -0.4030  1.8419 -0.2133
 5421SOL     OW18256   4.630   1.442   4.171 -0.1736 -0.3895 -0.4658
 5421SOL    HW118257   4.681   1.434   4.091  0.9752  2.0075 -0.0540
 5421SOL    HW218258   4.550   1.489   4.145  0.4902  0.9637 -0.1473
 5422SOL     OW18259   0.260   7.321   8.870 -0.1066  0.2493 -0.1264
 5422SOL    HW118260   0.294   7.344   8.956 -0.6985  1.1419 -0.1248
 5422SOL    HW218261   0.238   7.228   8.877 -0.2933  0.3512  0.7309
 5423SOL     OW18262   0.833   6.523   5.602 -0.4031 -0.0747 -0.0505
 5423SOL    HW118263   0.864   6.485   5.684 -0.0855 -3.3790 -1.5558
 5423SOL    HW218264   0.747   6.559   5.623  0.4053  0.7900  2.0680
 5424SOL     OW18265   7.543   8.398   8.339 -0.0525  0.7779  0.3473
 5424SOL    HW118266   7.456   8.436   8.340 -1.4135 -2.1056  1.3175
 5424SOL    HW218267   7.552   8.354   8.423  1.6280 -0.4822 -0.4196
 5425SOL     OW18268   6.436   4.771   5.162 -0.0325 -0.1997  0.3402
 5425SOL    HW118269   6.466   4.788   5.252 -0.2448 -2.0067  0.7762
 5425SOL    HW218270   6.345   4.801   5.162 -0.3589 -1.1682  1.0450
 5426SOL     OW18271   7.968   0.859   5.265 -0.2717 -0.6443  0.0709
 5426SOL    HW118272   8.060   0.886   5.259 -0.4053  0.4895  1.9738
 5426SOL    HW218273   7.969   0.787   5.328 -0.7166 -0.2489  0.5458
 5427SOL     OW18274   7.175   0.381   7.146  0.4183 -0.5087  0.1317
 5427SOL    HW118275   7.172   0.359   7.053 -0.3183  1.0486 -0.2362
 5427SOL    HW218276   7.122   0.312   7.188  0.3510 -0.9444 -0.6495
 5428SOL     OW18277   4.416   8.225   5.566 -0.2224 -0.0957  0.3136
 5428SOL    HW118278   4.477   8.243   5.637 -0.2052  0.5242  0.1418
 5428SOL    HW218279   4.448   8.276   5.492  0.7162 -2.0033 -0.6674
 5429SOL     OW18280   2.635   8.727   2.565  0.3226 -0.0871  0.4010
 5429SOL    HW118281   2.644   8.633   2.554 -1.7194 -0.2976  0.2358
 5429SOL    HW218282   2.704   8.764   2.509  0.3796 -1.4644 -0.4882
 5430SOL     OW18283   7.384   3.295   7.259  0.4370 -0.5783  0.2952
 5430SOL    HW118284   7.390   3.200   7.260  0.6208 -0.6613 -2.0752
 5430SOL    HW218285   7.473   3.325   7.279  1.1244 -1.0382 -1.7746
 5431SOL     OW18286   6.321   2.552   2.871 -0.2341  0.0558 -0.2116
 5431SOL    HW118287   6.402   2.506   2.895  0.1107  1.9458  2.7416
 5431SOL    HW218288   6.251   2.497   2.905  0.1608  1.3649  3.0117
 5432SOL     OW18289   2.608   3.120   2.757 -0.1958  0.0941 -0.3634
 5432SOL    HW118290   2.606   3.216   2.764 -0.7282  0.2203 -1.8765
 5432SOL    HW218291   2.659   3.104   2.677  0.3671 -0.9142  0.1868
 5433SOL     OW18292   6.633   1.430   4.404  0.0623 -0.0777  0.4763
 5433SOL    HW118293   6.699   1.439   4.473  0.4614 -0.7913  0.1928
 5433SOL    HW218294   6.575   1.505   4.418  0.8059  0.4493  0.8555
 5434SOL     OW18295   7.880   6.166   4.049  0.4426  0.1701 -0.3027
 5434SOL    HW118296   7.798   6.147   4.094  1.3366 -1.5601  0.7391
 5434SOL    HW218297   7.856   6.180   3.958 -1.1075  0.7649  0.1704
 5435SOL     OW18298   1.007   3.778   2.522  0.6435 -0.1094  0.2248
 5435SOL    HW118299   1.048   3.797   2.438 -0.9256  2.1910 -0.1356
 5435SOL    HW218300   1.077   3.744   2.577  1.5778 -2.4087 -2.1674
 5436SOL     OW18301   6.034   2.754   1.386  0.9512  0.3633  0.1744
 5436SOL    HW118302   5.985   2.816   1.440  1.1206  0.5074  0.1636
 5436SOL    HW218303   5.982   2.746   1.306  0.5976 -0.0072  0.4416
 5437SOL     OW18304   2.244   3.370   8.778 -0.3430 -0.4189 -0.4837
 5437SOL    HW118305   2.168   3.380   8.721  0.0579  1.1826 -0.7803
 5437SOL    HW218306   2.219   3.300   8.839 -1.6424 -0.6157 -1.2113
 5438SOL     OW18307   4.327   3.552   4.922  0.1166 -0.2209  0.3979
 5438SOL    HW118308   4.281   3.475   4.886 -1.2799  0.0286  1.5405
 5438SOL    HW218309   4.409   3.517   4.955  0.1751 -0.9494 -0.4731
 5439SOL     OW18310   8.823   6.497   6.776 -0.5170 -0.1838 -0.8916
 5439SOL    HW118311   8.775   6.575   6.803 -0.7856 -0.4232 -0.6731
 5439SOL    HW218312   8.755   6.431   6.760 -0.2411 -0.6476 -0.1897
 5440SOL     OW18313   2.849   0.116   6.586  0.8583 -0.1736 -0.0494
 5440SOL    HW118314   2.806   0.196   6.553  0.6452 -0.2729 -0.0182
 5440SOL    HW218315   2.882   0.073   6.507  0.9929 -0.0439 -0.0645
 5441SOL     OW18316   7.609   2.312   0.695 -0.2220  0.1912 -0.5037
 5441SOL    HW118317   7.520   2.336   0.720  0.7357  0.7897  2.9124
 5441SOL    HW218318   7.636   2.380   0.633 -0.9820  2.1302  1.1868
 5442SOL     OW18319   0.962   3.127   3.246 -0.1081  0.1798 -0.1748
 5442SOL    HW118320   0.891   3.105   3.185 -1.5843  1.2706  1.0703
 5442SOL    HW218321   0.981   3.044   3.290 -0.1799 -0.2557 -0.9346
 5443SOL     OW18322   4.736   6.291   4.516 -0.0367  0.6295 -0.4676
 5443SOL    HW118323   4.663   6.233   4.494 -1.7144  1.7408  1.8150
 5443SOL    HW218324   4.803   6.231   4.549 -0.8698 -0.2273 -0.2630
 5444SOL     OW18325   7.490   1.371   0.628  1.2571 -0.3169  0.6737
 5444SOL    HW118326   7.449   1.456   0.615  0.3645 -1.0728 -2.2149
 5444SOL    HW218327   7.568   1.374   0.573  2.8419 -0.4418  2.7605
 5445SOL     OW18328   7.719   6.192   2.296  0.4483  0.0777  0.2218
 5445SOL    HW118329   7.809   6.220   2.308 -0.3149  2.0806  1.6454
 5445SOL    HW218330   7.682   6.188   2.384 -1.5278  1.7560 -0.4491
 5446SOL     OW18331   4.673   5.176   4.508  0.8587 -0.1038 -0.6680
 5446SOL    HW118332   4.691   5.150   4.599 -1.5037 -0.0702 -0.1304
 5446SOL    HW218333   4.723   5.256   4.496 -0.7489  1.3448  1.5253
 5447SOL     OW18334   4.138   0.621   0.933  0.0825  0.1870 -0.3756
 5447SOL    HW118335   4.207   0.684   0.916  0.1863  0.3609  0.6189
 5447SOL    HW218336   4.157   0.588   1.021 -0.6967 -0.2794 -0.3731
 5448SOL     OW18337   7.823   0.813   6.802 -0.3435  0.1882 -0.3139
 5448SOL    HW118338   7.757   0.785   6.739 -0.0112 -1.5149  0.0655
 5448SOL    HW218339   7.773   0.840   6.879 -0.7262  1.8711 -1.1032
 5449SOL     OW18340   4.001   1.151   4.827 -0.2801  0.4702  0.8458
 5449SOL    HW118341   4.065   1.136   4.757 -0.8919 -1.8578  0.6855
 5449SOL    HW218342   3.996   1.246   4.836  2.6727  0.7498  0.4036
 5450SOL     OW18343   4.850   1.358   4.311  0.4500  0.2692  0.1661
 5450SOL    HW118344   4.777   1.404   4.269  1.1779 -0.2020 -1.7034
 5450SOL    HW218345   4.821   1.267   4.316  1.7438 -0.4555 -2.9136
 5451SOL     OW18346   1.980   5.967   6.466 -0.2770  0.7855  0.2247
 5451SOL    HW118347   1.900   5.976   6.414 -0.6096 -2.5851 -0.0530
 5451SOL    HW218348   1.951   5.978   6.557 -0.4304  2.6793 -0.0272
 5452SOL     OW18349   7.106   7.326   3.106  0.0182 -0.3239 -0.4565
 5452SOL    HW118350   7.115   7.393   3.174 -0.2173 -1.6259  0.9077
 5452SOL    HW218351   7.162   7.357   3.035  0.7648  0.7890  0.5656
 5453SOL     OW18352   3.837   5.717   1.340  0.2755  0.4936  0.0545
 5453SOL    HW118353   3.820   5.629   1.373  2.3034  0.4114  1.0320
 5453SOL    HW218354   3.925   5.712   1.301 -0.2408  1.7029 -1.3832
 5454SOL     OW18355   8.806   3.046   3.884 -0.5296  0.0886 -0.0982
 5454SOL    HW118356   8.799   3.097   3.965 -0.5329  0.6614 -0.4550
 5454SOL    HW218357   8.891   3.072   3.847  1.3867 -3.0277  1.6479
 5455SOL     OW18358   0.860   6.098   8.613  0.0671 -0.7731  0.0158
 5455SOL    HW118359   0.865   6.008   8.583  1.8698 -0.9906  0.8235
 5455SOL    HW218360   0.917   6.147   8.553  1.0848 -0.6431  1.0430
 5456SOL     OW18361   6.935   4.833   7.792  0.2373  0.1398  0.4694
 5456SOL    HW118362   6.899   4.882   7.718  0.2351 -0.5483  0.0127
 5456SOL    HW218363   6.862   4.778   7.822  0.2984  0.2646  0.8620
 5457SOL     OW18364   2.755   2.219   4.632 -0.8719  0.2332 -0.0125
 5457SOL    HW118365   2.662   2.224   4.654 -0.8883  0.7975 -0.1935
 5457SOL    HW218366   2.789   2.148   4.687 -1.2737  0.4647  0.5497
 5458SOL     OW18367   1.325   8.331   1.914 -0.2694  0.3219 -0.5562
 5458SOL    HW118368   1.388   8.266   1.945 -0.4997 -0.7889 -2.2808
 5458SOL    HW218369   1.244   8.282   1.901 -1.2801  1.5504  0.7783
 5459SOL     OW18370   4.664   1.568   4.594  0.1522  0.2963  0.3026
 5459SOL    HW118371   4.713   1.647   4.574  0.6388 -0.1480 -0.3112
 5459SOL    HW218372   4.716   1.524   4.662  0.0937  0.3128  0.3572
 5460SOL     OW18373   0.616   2.297   5.155  0.0507 -0.0416  0.1172
 5460SOL    HW118374   0.520   2.305   5.154 -0.1461 -1.9803  0.5553
 5460SOL    HW218375   0.635   2.223   5.098  1.3922  0.9241 -0.7467
 5461SOL     OW18376   5.337   1.785   4.650 -0.3175 -0.2512 -0.2353
 5461SOL    HW118377   5.297   1.703   4.620 -2.3914  0.8281 -0.5979
 5461SOL    HW218378   5.321   1.786   4.744  0.9375 -0.8815 -0.0020
 5462SOL     OW18379   2.156   1.650   5.589 -0.1378 -0.5158  0.1548
 5462SOL    HW118380   2.228   1.677   5.646 -0.7011  0.5460  0.3910
 5462SOL    HW218381   2.197   1.596   5.522  1.0828  1.0675 -0.4338
 5463SOL     OW18382   1.252   0.663   4.750  0.4063  0.4298 -0.0402
 5463SOL    HW118383   1.295   0.665   4.836 -0.4029 -0.0078  0.3853
 5463SOL    HW218384   1.304   0.601   4.699 -0.2915 -0.8743  0.7924
 5464SOL     OW18385   1.836   7.729   6.495  0.3019  0.1522 -0.8072
 5464SOL    HW118386   1.865   7.777   6.417  4.5721  0.3307  0.6398
 5464SOL    HW218387   1.831   7.796   6.563 -1.4291 -0.3185 -0.4327
 5465SOL     OW18388   2.048   5.713   8.237  0.0504 -0.0824  0.0766
 5465SOL    HW118389   2.022   5.692   8.147  0.1623 -2.7659  0.5741
 5465SOL    HW218390   1.966   5.710   8.286  0.3782 -2.2817  0.6012
 5466SOL     OW18391   5.861   8.258   2.359  0.0637  0.0440  0.3947
 5466SOL    HW118392   5.946   8.230   2.391 -0.2330 -0.4020  0.8054
 5466SOL    HW218393   5.881   8.315   2.285  0.7380  0.5127  0.9236
 5467SOL     OW18394   6.008   1.424   2.900 -0.3420  0.3833 -0.4793
 5467SOL    HW118395   6.029   1.363   2.830 -0.1820 -0.2932  0.1491
 5467SOL    HW218396   6.045   1.508   2.870  1.7608 -0.3741 -0.2193
 5468SOL     OW18397   1.227   8.159   5.685 -0.4802  0.2200 -0.3043
 5468SOL    HW118398   1.256   8.143   5.775  0.7488  2.6581 -0.1961
 5468SOL    HW218399   1.308   8.161   5.633 -1.2051 -1.7885 -1.6443
 5469SOL     OW18400   4.660   3.997   1.160 -0.0304  0.6176 -0.5481
 5469SOL    HW118401   4.670   3.993   1.065 -2.0973 -0.9369 -0.7568
 5469SOL    HW218402   4.737   4.045   1.190 -0.3689  3.0239 -3.1689
 5470SOL     OW18403   5.299   4.233   6.075  0.6004 -0.4126 -0.1286
 5470SOL    HW118404   5.378   4.190   6.040  0.3183 -0.2300 -1.0254
 5470SOL    HW218405   5.321   4.253   6.166  1.9646  0.5011 -0.6202
 5471SOL     OW18406   3.452   2.298   4.120 -0.1429  0.1337 -0.1917
 5471SOL    HW118407   3.527   2.242   4.100 -1.0165 -0.7670 -1.1588
 5471SOL    HW218408   3.489   2.379   4.153  1.2315 -0.4218 -0.3235
 5472SOL     OW18409   2.403   2.084   6.843  0.1082 -0.4496  0.2915
 5472SOL    HW118410   2.453   2.094   6.761 -1.5439  0.1293 -0.7022
 5472SOL    HW218411   2.424   2.163   6.893  0.0020 -0.0848 -0.2287
 5473SOL     OW18412   3.568   1.303   7.373  0.4144 -0.0784  0.3798
 5473SOL    HW118413   3.641   1.243   7.387  2.2399  1.6250 -1.0635
 5473SOL    HW218414   3.605   1.390   7.393 -1.7507  0.7054  1.2417
 5474SOL     OW18415   5.046   1.268   1.538  0.0009 -0.3760  0.0249
 5474SOL    HW118416   5.107   1.204   1.575  0.4750 -0.2214 -0.4700
 5474SOL    HW218417   5.095   1.351   1.538 -0.2740 -0.2108 -0.1946
 5475SOL     OW18418   8.234   7.299   2.501  0.3948 -0.2473  0.0001
 5475SOL    HW118419   8.274   7.378   2.537 -1.5753  0.4196  0.8638
 5475SOL    HW218420   8.254   7.231   2.566 -1.2618  0.4680  1.3453
 5476SOL     OW18421   6.629   7.977   6.032  0.0604  0.6286 -0.9030
 5476SOL    HW118422   6.700   8.027   6.072 -0.5715 -0.1446  1.2971
 5476SOL    HW218423   6.577   8.043   5.985  0.7780  1.5987 -0.3658
 5477SOL     OW18424   0.539   3.335   3.621  0.2570  0.0171  0.0990
 5477SOL    HW118425   0.453   3.294   3.618  1.1240 -2.0085  1.3039
 5477SOL    HW218426   0.598   3.265   3.650  2.0909  1.7077  0.6333
 5478SOL     OW18427   1.974   3.648   1.261 -0.6991 -0.6896  0.3856
 5478SOL    HW118428   1.906   3.596   1.304 -0.4463 -0.9413  0.4831
 5478SOL    HW218429   2.031   3.584   1.220 -0.3858 -0.4895  0.5022
 5479SOL     OW18430   8.694   5.572   7.110  0.1531 -0.5952 -0.0152
 5479SOL    HW118431   8.743   5.523   7.044 -0.3505 -0.4220 -0.5313
 5479SOL    HW218432   8.685   5.512   7.184  1.2964 -0.5683  0.1671
 5480SOL     OW18433   8.506   7.282   0.750 -0.3190  0.4133  0.0735
 5480SOL    HW118434   8.517   7.375   0.729 -0.5960  0.4050 -0.1107
 5480SOL    HW218435   8.412   7.270   0.756 -0.3580 -0.1785 -1.3726
 5481SOL     OW18436   6.855   6.714   8.351  0.2983  0.0954  0.8103
 5481SOL    HW118437   6.904   6.784   8.308 -0.0662 -0.0492  0.1386
 5481SOL    HW218438   6.773   6.756   8.379 -0.1296 -0.1574 -0.0220
 5482SOL     OW18439   6.464   8.016   1.635  0.2550 -0.4550 -0.4882
 5482SOL    HW118440   6.472   7.921   1.630  0.8662 -0.5506  1.5773
 5482SOL    HW218441   6.403   8.031   1.707  2.8523  0.7058  1.6262
 5483SOL     OW18442   5.941   4.611   5.052 -0.1857  0.0594  0.2670
 5483SOL    HW118443   5.946   4.628   4.958  2.7919 -1.1302  0.1040
 5483SOL    HW218444   5.879   4.539   5.060  0.0616 -0.3058 -0.8909
 5484SOL     OW18445   5.367   5.088   2.983 -0.1140 -0.5403  0.0281
 5484SOL    HW118446   5.432   5.107   3.050 -0.2780 -1.1136  0.3526
 5484SOL    HW218447   5.332   5.174   2.958  0.6558 -0.2358 -0.0494
 5485SOL     OW18448   4.950   7.374   2.879  0.7296 -0.3327 -0.0931
 5485SOL    HW118449   5.031   7.374   2.930 -0.4749 -1.4533  1.9235
 5485SOL    HW218450   4.899   7.446   2.915  1.1587  1.0503 -2.0604
 5486SOL     OW18451   1.601   7.408   0.817  0.2068 -0.0150  0.0663
 5486SOL    HW118452   1.520   7.457   0.807  0.4100  0.3218  0.0430
 5486SOL    HW218453   1.632   7.392   0.728  0.8700  1.0537  0.0848
 5487SOL     OW18454   6.299   3.212   7.088  0.3246  0.2502  0.0245
 5487SOL    HW118455   6.351   3.142   7.049 -0.8975 -0.7958  0.1909
 5487SOL    HW218456   6.294   3.189   7.181 -1.1819 -0.2083 -0.1363
 5488SOL     OW18457   4.480   7.069   6.012  0.1745  0.0533 -0.5026
 5488SOL    HW118458   4.487   7.153   5.966  0.3887 -0.3387 -1.1912
 5488SOL    HW218459   4.461   7.005   5.944  3.3971 -1.0277 -0.5547
 5489SOL     OW18460   1.318   2.767   1.190  0.2455  0.7061 -0.0845
 5489SOL    HW118461   1.295   2.680   1.223 -1.4421  1.2639  0.3292
 5489SOL    HW218462   1.390   2.752   1.129  0.3335 -0.9072  0.3747
 5490SOL     OW18463   2.307   8.131   3.172 -0.2945 -0.3112  0.7596
 5490SOL    HW118464   2.402   8.145   3.169 -0.5141  1.5671  1.2552
 5490SOL    HW218465   2.293   8.051   3.121  1.5491 -0.6549  0.7098
 5491SOL     OW18466   6.874   7.602   3.161  0.2276  0.0571 -0.3706
 5491SOL    HW118467   6.790   7.643   3.182 -0.5994 -1.6770 -0.1377
 5491SOL    HW218468   6.850   7.517   3.123  1.8847 -0.4877 -0.2464
 5492SOL     OW18469   0.157   4.285   3.224 -0.2615 -0.2235 -0.3049
 5492SOL    HW118470   0.125   4.361   3.176  2.0596  1.8137  1.0921
 5492SOL    HW218471   0.080   4.251   3.270 -1.8001 -0.1291 -2.6712
 5493SOL     OW18472   4.863   2.851   6.788 -0.2068  0.1829  0.2079
 5493SOL    HW118473   4.915   2.854   6.709  0.1453  0.6790  0.4563
 5493SOL    HW218474   4.883   2.932   6.834 -1.4945  0.5826  0.1182
 5494SOL     OW18475   2.769   0.185   6.174  0.2550 -0.2100 -1.0529
 5494SOL    HW118476   2.680   0.218   6.190  0.3022 -0.8506  0.7287
 5494SOL    HW218477   2.756   0.094   6.148  0.4075 -0.4209 -0.3949
 5495SOL     OW18478   0.743   6.497   1.109  0.2093  0.4861 -0.5518
 5495SOL    HW118479   0.648   6.509   1.106  0.1063  0.9901  2.0992
 5495SOL    HW218480   0.754   6.406   1.137  0.1601  1.7342  4.6500
 5496SOL     OW18481   1.517   8.788   5.637 -0.1077  0.4671 -0.0832
 5496SOL    HW118482   1.465   8.849   5.690 -1.2163 -1.9057  1.7980
 5496SOL    HW218483   1.452   8.730   5.598  0.9708 -1.6636  1.1060
 5497SOL     OW18484   6.602   6.267   0.591  0.1680  0.0486 -0.1079
 5497SOL    HW118485   6.556   6.298   0.513  0.9174  2.0124  0.1744
 5497SOL    HW218486   6.692   6.299   0.581 -0.1189  1.9612  2.3513
 5498SOL     OW18487   8.521   3.003   1.189  0.6027 -0.3297  0.5069
 5498SOL    HW118488   8.561   2.927   1.148 -1.7979 -1.2043 -0.3945
 5498SOL    HW218489   8.507   2.978   1.280 -0.7010 -1.2632  0.0844
 5499SOL     OW18490   8.589   4.554   6.253  0.5442 -0.1206  0.6222
 5499SOL    HW118491   8.666   4.611   6.241  1.4273 -0.8686  2.4487
 5499SOL    HW218492   8.524   4.611   6.294  0.2780  0.3703 -0.4303
 5500SOL     OW18493   4.616   3.161   2.812  0.1155 -0.5787 -0.1168
 5500SOL    HW118494   4.655   3.102   2.748  1.3984  1.3112 -1.1949
 5500SOL    HW218495   4.687   3.178   2.875 -0.5287 -0.9061  0.7097
 5501SOL     OW18496   5.291   2.475   6.276  0.7027 -0.6327 -0.6593
 5501SOL    HW118497   5.232   2.533   6.228 -0.8185 -0.6114  1.1506
 5501SOL    HW218498   5.372   2.525   6.285 -0.1517  0.7227 -0.2501
 5502SOL     OW18499   0.634   0.779   8.791 -0.1374 -0.0953 -0.0345
 5502SOL    HW118500   0.658   0.765   8.883 -3.2396  1.5567  1.1697
 5502SOL    HW218501   0.604   0.693   8.761  2.4217 -1.0434 -0.1132
 5503SOL     OW18502   3.295   4.258   0.151  0.0203  0.2309 -0.2589
 5503SOL    HW118503   3.310   4.168   0.123  0.6792  0.7951 -1.7945
 5503SOL    HW218504   3.381   4.289   0.178  0.3075  1.1474 -2.0797
 5504SOL     OW18505   6.579   3.498   4.554  0.0846 -0.3446 -0.1827
 5504SOL    HW118506   6.552   3.519   4.465 -0.8714 -0.3277  0.1029
 5504SOL    HW218507   6.675   3.497   4.550  0.0629  0.0685 -1.1103
 5505SOL     OW18508   5.386   5.777   4.000  0.2531 -0.1293  0.0532
 5505SOL    HW118509   5.464   5.809   4.047 -0.7506 -0.7515  2.2613
 5505SOL    HW218510   5.404   5.685   3.984  0.4996  0.0309 -0.6415
 5506SOL     OW18511   2.633   0.603   2.595  0.3957  0.1802 -0.5649
 5506SOL    HW118512   2.642   0.611   2.500 -0.4201  3.2682 -0.4932
 5506SOL    HW218513   2.546   0.566   2.607  0.9140 -1.2461 -0.9779
 5507SOL     OW18514   2.630   7.379   4.642  0.4072 -0.4422 -0.1735
 5507SOL    HW118515   2.707   7.401   4.695  0.3276 -1.5436  0.4489
 5507SOL    HW218516   2.603   7.461   4.602 -0.2350  0.7130  2.4377
 5508SOL     OW18517   7.787   7.138   1.074 -0.0196  0.0550  0.1480
 5508SOL    HW118518   7.747   7.092   1.148  0.2896  0.7374  0.7529
 5508SOL    HW218519   7.717   7.192   1.038 -0.5620 -1.3497 -0.9733
 5509SOL     OW18520   0.803   4.185   4.381 -0.0014 -0.0112 -0.1535
 5509SOL    HW118521   0.720   4.165   4.425  0.8353 -0.0322  1.4975
 5509SOL    HW218522   0.792   4.275   4.349 -0.8507 -0.2142 -0.4687
 5510SOL     OW18523   0.379   0.932   5.739  0.1417  0.4082  0.4814
 5510SOL    HW118524   0.340   0.916   5.825 -0.7518 -0.5040 -0.0734
 5510SOL    HW218525   0.361   1.024   5.721 -1.1221  0.1857  0.5568
 5511SOL     OW18526   4.722   3.614   7.489  0.0561 -0.2004  0.3820
 5511SOL    HW118527   4.669   3.591   7.565  1.6630 -2.8247  0.8401
 5511SOL    HW218528   4.672   3.579   7.415 -1.2247  1.8488  0.1837
 5512SOL     OW18529   0.366   1.538   6.677 -0.1172 -0.2712 -0.1449
 5512SOL    HW118530   0.456   1.512   6.695 -0.2941 -1.5569 -0.9403
 5512SOL    HW218531   0.317   1.510   6.754  0.1033  0.0486  0.1106
 5513SOL     OW18532   6.165   5.283   6.871 -0.4003  0.0791 -0.1548
 5513SOL    HW118533   6.122   5.313   6.791 -0.6078  0.5910  0.1477
 5513SOL    HW218534   6.098   5.292   6.939 -0.0292  0.2442  0.1919
 5514SOL     OW18535   3.652   3.779   5.294 -0.4030  0.6084 -0.1640
 5514SOL    HW118536   3.659   3.836   5.370  0.1799 -0.0437  0.2876
 5514SOL    HW218537   3.719   3.712   5.308 -0.3330  0.4360 -1.2192
 5515SOL     OW18538   6.614   6.282   2.530  0.2972 -0.5891  0.5423
 5515SOL    HW118539   6.681   6.318   2.587  1.6466 -1.4742 -0.4111
 5515SOL    HW218540   6.546   6.349   2.527  0.7008 -0.0595  2.2688
 5516SOL     OW18541   7.245   8.490   8.268  0.2490 -0.1705  0.0430
 5516SOL    HW118542   7.179   8.421   8.279  1.0009 -0.8624  0.2768
 5516SOL    HW218543   7.245   8.508   8.175  1.1225 -1.5912 -0.2640
 5517SOL     OW18544   1.648   5.173   7.668 -0.6186 -0.0225  0.0271
 5517SOL    HW118545   1.588   5.099   7.662  1.0593 -1.6426  1.7882
 5517SOL    HW218546   1.593   5.250   7.650 -2.7333 -1.5506 -0.4592
 5518SOL     OW18547   8.792   0.033   2.767  0.1712  0.1461  0.5990
 5518SOL    HW118548   8.731   0.107   2.764  0.9106  0.7483 -0.7830
 5518SOL    HW218549   8.738  -0.044   2.752 -0.7464  0.2596  2.9309
 5519SOL     OW18550   3.503   3.572   5.195 -0.3201 -0.3133 -0.2207
 5519SOL    HW118551   3.537   3.649   5.241 -0.8885 -0.4114  0.3872
 5519SOL    HW218552   3.501   3.598   5.103 -0.4190  0.3674 -0.0303
 5520SOL     OW18553   3.085   6.536   3.348  0.3279  0.2005  0.4792
 5520SOL    HW118554   3.072   6.451   3.391  0.9291  0.1155  0.4962
 5520SOL    HW218555   3.007   6.587   3.372 -0.9898 -0.9746 -1.0731
 5521SOL     OW18556   1.262   1.846   1.923 -0.1886 -0.4277  0.2687
 5521SOL    HW118557   1.274   1.863   1.830  0.2441  0.9111  0.5447
 5521SOL    HW218558   1.255   1.933   1.963  0.4573 -0.9454  1.5847
 5522SOL     OW18559   3.313   8.015   3.339 -0.2223 -0.4926 -0.2137
 5522SOL    HW118560   3.322   8.107   3.363 -0.1940 -0.8294  1.1621
 5522SOL    HW218561   3.264   8.016   3.257 -2.3344  0.6799  0.9629
 5523SOL     OW18562   0.309   3.194   8.159 -0.5573  0.3527 -0.4082
 5523SOL    HW118563   0.373   3.134   8.121 -1.0162 -0.5509  0.1857
 5523SOL    HW218564   0.225   3.163   8.125 -0.7578  0.9678 -0.4807
 5524SOL     OW18565   6.506   1.001   7.985 -0.1645  0.0041 -0.3095
 5524SOL    HW118566   6.442   1.034   8.048 -2.2855 -0.0342 -2.3220
 5524SOL    HW218567   6.534   1.077   7.936 -1.2362 -0.3917 -1.6079
 5525SOL     OW18568   6.472   0.269   5.447 -0.4579 -0.5087 -0.2572
 5525SOL    HW118569   6.523   0.253   5.368 -2.0703 -0.3214 -1.3782
 5525SOL    HW218570   6.508   0.350   5.483 -0.9845  0.5257 -1.9313
 5526SOL     OW18571   5.626   3.999   8.582 -0.3366  0.1444 -0.1488
 5526SOL    HW118572   5.531   4.009   8.576 -0.4011  1.1702  1.7923
 5526SOL    HW218573   5.658   4.023   8.494 -1.9385 -2.1794 -1.4734
 5527SOL     OW18574   3.858   0.581   5.376 -0.1440  0.0822 -0.3759
 5527SOL    HW118575   3.837   0.504   5.323  1.8821  0.0426 -1.2185
 5527SOL    HW218576   3.775   0.605   5.416 -1.4844 -0.7453 -2.4534
 5528SOL     OW18577   3.608   4.631   3.379 -0.4793 -0.1450  0.1104
 5528SOL    HW118578   3.524   4.586   3.375 -0.4410 -0.1804 -0.2742
 5528SOL    HW218579   3.673   4.560   3.384 -0.5099 -0.1164  1.2493
 5529SOL     OW18580   8.697   0.838   7.782  0.5479 -0.3125 -0.9246
 5529SOL    HW118581   8.694   0.749   7.818 -0.4474 -0.0319 -0.2620
 5529SOL    HW218582   8.718   0.826   7.689 -0.0114 -1.2812 -0.9408
 5530SOL     OW18583   4.068   7.916   7.560  0.4066 -0.2382  0.0991
 5530SOL    HW118584   4.069   7.940   7.467 -1.0713 -1.8492 -0.3979
 5530SOL    HW218585   4.042   7.824   7.560  1.4115 -0.5732  2.0853
 5531SOL     OW18586   8.041   5.364   1.172 -0.4252  0.6105  0.3086
 5531SOL    HW118587   8.006   5.395   1.256  0.4132  1.0038  0.5244
 5531SOL    HW218588   7.987   5.288   1.151  0.0340 -0.1655  1.7640
 5532SOL     OW18589   7.040   7.676   4.786 -0.8376  0.1623 -0.0841
 5532SOL    HW118590   7.035   7.751   4.726 -0.6319  0.2919  0.0606
 5532SOL    HW218591   7.132   7.671   4.811  0.1044 -2.7468 -3.4127
 5533SOL     OW18592   1.562   2.393   5.848  0.2536 -0.1061 -0.3693
 5533SOL    HW118593   1.638   2.429   5.894 -0.8426  1.3680  0.3930
 5533SOL    HW218594   1.597   2.360   5.766  1.8077 -0.0111  0.2177
 5534SOL     OW18595   1.102   8.214   0.847  0.2744  0.1816  0.0214
 5534SOL    HW118596   1.195   8.223   0.827 -0.1751  0.4569 -2.2112
 5534SOL    HW218597   1.058   8.235   0.765 -1.7063 -1.5264  0.5652
 5535SOL     OW18598   7.890   3.048   1.777 -0.4298  0.1143  0.5753
 5535SOL    HW118599   7.915   2.987   1.846 -1.8374 -0.2506  0.8032
 5535SOL    HW218600   7.920   3.006   1.696 -0.6365 -0.4752  0.8015
 5536SOL     OW18601   8.681   4.054   5.514  0.4221  0.2897 -0.0151
 5536SOL    HW118602   8.618   4.080   5.581  1.0488  0.4380  0.5345
 5536SOL    HW218603   8.668   3.959   5.505  1.0247  0.0856  1.0773
 5537SOL     OW18604   7.428   5.203   2.491 -0.3116 -0.3361  0.5148
 5537SOL    HW118605   7.393   5.261   2.558 -0.6825 -2.2291  2.0714
 5537SOL    HW218606   7.494   5.151   2.537 -0.1768 -1.3176 -0.7346
 5538SOL     OW18607   5.750   6.054   8.881 -0.4562 -0.5226  0.0747
 5538SOL    HW118608   5.668   6.085   8.844 -0.9777 -0.5349  1.1835
 5538SOL    HW218609   5.785   6.129   8.929 -0.7856 -1.0675  1.1968
 5539SOL     OW18610   2.232   0.750   0.667  1.1024  0.4877 -0.6552
 5539SOL    HW118611   2.227   0.720   0.758  0.0290  0.5713 -0.6698
 5539SOL    HW218612   2.324   0.739   0.643  1.2552 -0.2455  0.2006
 5540SOL     OW18613   5.979   0.121   2.689 -0.4972 -0.0281  0.2978
 5540SOL    HW118614   6.011   0.207   2.663  0.6172  0.5062  3.1057
 5540SOL    HW218615   5.897   0.110   2.641  0.6314  1.4016 -2.1459
 5541SOL     OW18616   8.580   4.824   4.317 -0.0508  0.4484  0.0190
 5541SOL    HW118617   8.559   4.739   4.279 -2.8064  1.8811 -1.9890
 5541SOL    HW218618   8.672   4.839   4.292  0.1709 -1.4464 -0.4596
 5542SOL     OW18619   8.561   8.571   7.217  0.2781 -0.0697  0.3957
 5542SOL    HW118620   8.635   8.630   7.222  2.1837 -2.1784 -1.1018
 5542SOL    HW218621   8.599   8.483   7.223 -1.9663 -1.2781 -1.3178
 5543SOL     OW18622   4.405   0.590   3.200 -0.0874  0.0355 -0.5810
 5543SOL    HW118623   4.366   0.677   3.191 -0.8458 -0.0444  1.3793
 5543SOL    HW218624   4.340   0.540   3.249  1.9890 -0.3849  2.0050
 5544SOL     OW18625   6.257   6.910   0.763 -0.5301  0.2602 -0.0531
 5544SOL    HW118626   6.299   6.838   0.717 -0.4011  0.2358  0.1008
 5544SOL    HW218627   6.229   6.872   0.846  0.4645  0.6369  0.4726
 5545SOL     OW18628   1.603   2.726   8.476 -0.0015 -0.3826  0.5332
 5545SOL    HW118629   1.681   2.704   8.423  0.8616  1.7284  0.8376
 5545SOL    HW218630   1.547   2.775   8.416  0.2636  0.6511  1.1146
 5546SOL     OW18631   5.954   2.647   6.292 -0.0113  0.1202  0.0487
 5546SOL    HW118632   5.985   2.669   6.380 -0.7390  1.6613 -0.0581
 5546SOL    HW218633   5.932   2.554   6.298 -1.2205  0.4653  1.8666
 5547SOL     OW18634   7.780   4.256   0.689 -0.3936 -0.1920 -0.3167
 5547SOL    HW118635   7.739   4.172   0.669 -1.2491  0.3574 -0.9245
 5547SOL    HW218636   7.868   4.249   0.651 -0.2244 -1.0447  0.2135
 5548SOL     OW18637   2.561   1.120   3.294  0.2963 -0.0522  0.6573
 5548SOL    HW118638   2.474   1.115   3.255  0.7449  0.4205 -0.4709
 5548SOL    HW218639   2.578   1.214   3.303  1.4439 -0.0544 -0.9757
 5549SOL     OW18640   4.251   4.104   3.237  0.0505 -0.1404 -0.6971
 5549SOL    HW118641   4.188   4.032   3.237 -0.1496 -0.0078  0.7419
 5549SOL    HW218642   4.199   4.182   3.217  0.0463 -0.2289 -1.0398
 5550SOL     OW18643   3.968   1.791   7.629 -0.4141  0.0882  0.1415
 5550SOL    HW118644   3.962   1.729   7.556 -1.5323  0.3492 -0.0074
 5550SOL    HW218645   3.950   1.876   7.589  0.3636  0.4170  0.4806
 5551SOL     OW18646   0.099   8.280   6.883 -0.1845  0.5225 -0.9630
 5551SOL    HW118647   0.103   8.271   6.787 -0.9645  0.2624 -0.9798
 5551SOL    HW218648   0.112   8.191   6.916  0.6560  0.6986 -0.7982
 5552SOL     OW18649   1.961   0.747   5.235  0.0660  0.4985 -0.1548
 5552SOL    HW118650   1.922   0.689   5.170  0.0990  1.0010 -0.6286
 5552SOL    HW218651   2.029   0.694   5.277 -1.4766 -0.5832  1.0861
 5553SOL     OW18652   2.650   5.953   0.892 -0.4838  0.2497 -0.5687
 5553SOL    HW118653   2.609   5.885   0.839 -0.1546 -2.8460  2.7742
 5553SOL    HW218654   2.743   5.949   0.870 -0.5903  0.2565 -1.0187
 5554SOL     OW18655   1.602   6.138   6.746  0.5470 -0.0122  0.0090
 5554SOL    HW118656   1.611   6.060   6.691  2.0829  0.8790 -1.0926
 5554SOL    HW218657   1.679   6.191   6.724 -0.4031  1.7590  0.7954
 5555SOL     OW18658   3.377   3.914   2.783  0.7062 -0.3732  0.2363
 5555SOL    HW118659   3.417   3.876   2.704  0.1562  0.4655 -0.4681
 5555SOL    HW218660   3.284   3.895   2.773  0.1665  2.4441 -0.9325
 5556SOL     OW18661   5.194   7.886   5.488 -0.1107 -0.6488 -0.0541
 5556SOL    HW118662   5.279   7.906   5.529  0.1971 -2.8477  0.5420
 5556SOL    HW218663   5.210   7.896   5.394  0.6517 -0.4919  0.0850
 5557SOL     OW18664   5.524   8.210   4.126  0.0011 -0.2262 -0.1864
 5557SOL    HW118665   5.570   8.133   4.159 -1.6144 -0.9040  0.6108
 5557SOL    HW218666   5.591   8.278   4.122  1.4389 -1.6136 -0.7787
 5558SOL     OW18667   0.069   1.089   2.920 -0.4641 -0.1254 -0.5380
 5558SOL    HW118668   0.037   1.151   2.985 -0.7096 -1.0270  0.2247
 5558SOL    HW218669   0.001   1.087   2.853 -0.7760 -0.0853 -0.2233
 5559SOL     OW18670   1.478   5.765   8.226  0.1414  0.2660 -0.0761
 5559SOL    HW118671   1.384   5.765   8.208  0.1333  1.3181 -0.0740
 5559SOL    HW218672   1.512   5.692   8.175 -0.2803  1.5087 -2.2703
 5560SOL     OW18673   6.362   1.024   7.358 -0.0944 -0.9134  0.0606
 5560SOL    HW118674   6.323   1.045   7.273  2.2448 -0.1334 -0.9028
 5560SOL    HW218675   6.425   0.955   7.339 -1.3182 -2.5464  1.6643
 5561SOL     OW18676   2.421   6.804   7.328 -0.5633 -0.1501  0.3398
 5561SOL    HW118677   2.423   6.889   7.372 -0.8400  0.1396 -0.1991
 5561SOL    HW218678   2.332   6.772   7.341 -0.4739 -0.3399  0.4989
 5562SOL     OW18679   6.796   3.509   0.146  0.1968  0.1519 -0.3895
 5562SOL    HW118680   6.796   3.413   0.149 -0.1399  0.1560 -0.0574
 5562SOL    HW218681   6.721   3.531   0.090 -0.1568  0.2233  0.0965
 5563SOL     OW18682   2.463   5.280   2.283 -0.0415  0.3208 -0.3648
 5563SOL    HW118683   2.464   5.206   2.343 -1.0822 -0.2612 -1.0356
 5563SOL    HW218684   2.555   5.298   2.265  0.4601  1.7421  2.8401
 5564SOL     OW18685   3.448   6.480   1.978 -0.0197 -0.2619  0.0589
 5564SOL    HW118686   3.381   6.437   2.032 -0.3908 -2.4990 -2.0114
 5564SOL    HW218687   3.398   6.527   1.912  0.4607  0.3679  0.1319
 5565SOL     OW18688   1.627   0.339   2.436 -0.2181 -0.2929 -0.0116
 5565SOL    HW118689   1.673   0.280   2.376 -1.4507 -2.4210  1.0261
 5565SOL    HW218690   1.538   0.343   2.401 -0.1241  1.1867 -0.1687
 5566SOL     OW18691   5.638   0.173   2.807 -0.0979 -0.2617  0.4439
 5566SOL    HW118692   5.661   0.144   2.719 -1.3420 -0.8446  0.2848
 5566SOL    HW218693   5.551   0.211   2.798  0.1107  0.4503  1.2797
 5567SOL     OW18694   8.685   6.306   4.933 -0.0253 -0.1411 -0.7045
 5567SOL    HW118695   8.731   6.227   4.904  0.6501  0.1582 -0.4671
 5567SOL    HW218696   8.750   6.376   4.923 -0.3955  0.2650 -0.2529
 5568SOL     OW18697   1.760   0.580   6.932  0.3874  0.0787 -0.0417
 5568SOL    HW118698   1.821   0.520   6.974 -0.5301 -1.4273 -0.7901
 5568SOL    HW218699   1.673   0.551   6.960 -0.0972  0.7832 -0.7589
 5569SOL     OW18700   3.806   2.427   5.269 -0.1469 -0.3120  0.5938
 5569SOL    HW118701   3.765   2.369   5.205  1.1141 -1.7613  1.0455
 5569SOL    HW218702   3.900   2.410   5.261  0.0438 -0.8177  3.0664
 5570SOL     OW18703   8.646   2.997   5.499 -0.6915  0.1191 -0.0739
 5570SOL    HW118704   8.726   3.020   5.450  0.7052 -1.3978  1.3511
 5570SOL    HW218705   8.616   3.080   5.535 -0.7112  0.9793 -1.9372
 5571SOL     OW18706   0.224   4.887   0.432 -0.9530 -1.1533  0.3400
 5571SOL    HW118707   0.195   4.979   0.435 -1.0170 -1.0232 -2.1327
 5571SOL    HW218708   0.311   4.891   0.394  0.1591 -1.9835  2.6559
 5572SOL     OW18709   7.061   5.819   6.411 -0.0328 -0.4164 -0.0530
 5572SOL    HW118710   6.995   5.762   6.372 -0.2168  0.2339 -0.7195
 5572SOL    HW218711   7.139   5.807   6.357  0.5953 -1.6133  1.0710
 5573SOL     OW18712   7.368   8.666   8.457  0.1278 -0.7280 -0.1112
 5573SOL    HW118713   7.316   8.641   8.533  0.9550  1.9290  1.4792
 5573SOL    HW218714   7.308   8.659   8.383 -1.8300  0.0353  1.3211
 5574SOL     OW18715   0.336   4.070   4.479  0.1671 -0.2112 -0.3086
 5574SOL    HW118716   0.318   4.031   4.564  0.8089 -3.1430 -1.3843
 5574SOL    HW218717   0.260   4.125   4.461 -0.5532 -0.5211  1.6049
 5575SOL     OW18718   3.602   4.856   6.077  0.3701 -0.1492 -0.2579
 5575SOL    HW118719   3.652   4.782   6.041  0.8151  0.3745 -0.7398
 5575SOL    HW218720   3.544   4.883   6.005 -0.5589 -0.6913  0.2664
 5576SOL     OW18721   0.304   6.415   0.917 -0.0422 -0.3960 -0.5347
 5576SOL    HW118722   0.216   6.407   0.955 -0.1796  1.3103 -0.4164
 5576SOL    HW218723   0.308   6.505   0.885  1.1023 -0.9231 -2.0092
 5577SOL     OW18724   8.530   4.538   4.238 -0.3665 -0.3687  0.5061
 5577SOL    HW118725   8.488   4.514   4.155 -0.7751  1.0238  0.2696
 5577SOL    HW218726   8.457   4.563   4.295  0.0344  1.5665  0.2653
 5578SOL     OW18727   8.587   8.519   2.345  0.1098 -0.2874  0.0324
 5578SOL    HW118728   8.673   8.503   2.384  0.1599 -1.1786 -0.4217
 5578SOL    HW218729   8.544   8.578   2.406  1.6067  1.4464 -0.4893
 5579SOL     OW18730   6.475   1.513   6.648 -0.1459 -0.1645 -0.2038
 5579SOL    HW118731   6.522   1.588   6.614 -0.2575  0.1042  0.2207
 5579SOL    HW218732   6.390   1.548   6.674 -0.3365 -0.5113 -0.3477
 5580SOL     OW18733   6.607   6.052   3.067  0.2552 -0.0717  0.1800
 5580SOL    HW118734   6.696   6.052   3.032 -0.4319 -1.9832 -1.7831
 5580SOL    HW218735   6.552   6.081   2.995 -0.8682 -0.5625  0.8115
 5581SOL     OW18736   2.137   2.141   3.511 -0.4989  0.1923 -0.6285
 5581SOL    HW118737   2.199   2.087   3.560 -1.6564 -1.5320 -0.9562
 5581SOL    HW218738   2.161   2.129   3.420  0.3499  1.7149 -0.6246
 5582SOL     OW18739   8.158   1.139   4.027  0.1702  0.1021  0.0327
 5582SOL    HW118740   8.072   1.142   4.067 -0.1630  2.1785 -0.7118
 5582SOL    HW218741   8.218   1.168   4.095 -0.0057  0.7285 -0.0762
 5583SOL     OW18742   8.171   0.338   0.776  0.4616  0.6960  0.1562
 5583SOL    HW118743   8.117   0.355   0.699 -1.0549  0.6193  1.1411
 5583SOL    HW218744   8.125   0.266   0.821  1.4840  0.5298  0.9630
 5584SOL     OW18745   5.304   5.262   3.489 -0.0506 -0.4168 -0.4201
 5584SOL    HW118746   5.335   5.195   3.428  2.2186 -0.5655  0.7737
 5584SOL    HW218747   5.329   5.229   3.575 -3.0049 -0.1357  0.6512
 5585SOL     OW18748   8.841   5.358   7.609  0.5062 -0.4430  0.0824
 5585SOL    HW118749   8.877   5.397   7.689  0.8510  0.1297 -0.3416
 5585SOL    HW218750   8.834   5.265   7.628  0.5920 -0.3084  0.7775
 5586SOL     OW18751   4.411   8.857   6.364  0.3449 -0.0377  0.0671
 5586SOL    HW118752   4.394   8.894   6.278 -1.3959 -0.4312  0.2034
 5586SOL    HW218753   4.359   8.911   6.424 -0.6518 -1.4207  0.5036
 5587SOL     OW18754   1.327   6.875   0.669 -0.1480 -0.0045 -0.2503
 5587SOL    HW118755   1.276   6.798   0.691 -1.6326  1.2447  0.9354
 5587SOL    HW218756   1.387   6.887   0.743  0.4160 -0.2619 -0.6538
 5588SOL     OW18757   0.864   3.421   7.233 -0.2909 -0.2279 -0.3347
 5588SOL    HW118758   0.771   3.398   7.232 -0.2995 -0.2392 -1.8859
 5588SOL    HW218759   0.909   3.339   7.212  0.0332 -0.0653 -0.2763
 5589SOL     OW18760   3.919   6.504   7.160  0.5401  0.1624 -0.0396
 5589SOL    HW118761   3.977   6.568   7.119  0.8616  0.7026  1.2387
 5589SOL    HW218762   3.952   6.419   7.128  0.1920  0.6000 -1.6273
 5590SOL     OW18763   6.971   3.937   0.895  0.3082  0.1638 -0.4597
 5590SOL    HW118764   6.976   3.936   0.991  3.1334  1.3357 -0.4873
 5590SOL    HW218765   7.019   3.859   0.867  0.7555  0.5944 -0.9151
 5591SOL     OW18766   1.058   4.740   7.376  0.4817  0.1592  0.2860
 5591SOL    HW118767   0.962   4.740   7.373  0.3697  0.6297  2.2798
 5591SOL    HW218768   1.080   4.658   7.420  1.1266 -0.7386 -1.5959
 5592SOL     OW18769   8.835   7.128   7.589 -0.8335  0.0888 -0.2953
 5592SOL    HW118770   8.875   7.137   7.675 -2.5969 -0.7157  0.6461
 5592SOL    HW218771   8.894   7.176   7.530  0.3350  0.7595  1.3560
 5593SOL     OW18772   7.822   4.021   1.631 -0.0400 -0.4716  0.7792
 5593SOL    HW118773   7.856   3.932   1.644 -1.5062 -1.0331  0.8822
 5593SOL    HW218774   7.728   4.010   1.616  0.0108  0.9066 -1.0464
 5594SOL     OW18775   7.798   6.972   2.284  0.7280 -0.2640  0.0884
 5594SOL    HW118776   7.712   6.930   2.283  1.0245 -1.0976  2.5307
 5594SOL    HW218777   7.821   6.983   2.192 -1.0293 -2.0109 -0.6238
 5595SOL     OW18778   1.947   0.824   4.912 -0.1770 -0.0660  1.3355
 5595SOL    HW118779   1.995   0.784   4.839 -1.1703  1.6244 -0.3487
 5595SOL    HW218780   1.875   0.763   4.930 -1.9340  0.9497 -1.4815
 5596SOL     OW18781   2.370   1.262   7.354 -0.5024  0.3291 -0.3872
 5596SOL    HW118782   2.369   1.218   7.269 -0.7341 -1.2343  0.4014
 5596SOL    HW218783   2.282   1.250   7.388 -0.7048  1.8145 -0.3257
 5597SOL     OW18784   4.373   3.680   5.702 -0.3217  0.3809  0.1863
 5597SOL    HW118785   4.435   3.703   5.633  0.7334  0.0740  1.0068
 5597SOL    HW218786   4.423   3.685   5.783 -1.0107 -1.1533  0.7562
 5598SOL     OW18787   4.261   1.011   7.826  0.2564 -0.2161  0.1200
 5598SOL    HW118788   4.337   1.066   7.808  0.4643  0.2004  2.0367
 5598SOL    HW218789   4.188   1.074   7.831 -0.2467 -0.6062 -1.6693
 5599SOL     OW18790   3.729   4.898   5.142 -0.1249  0.8937  0.2678
 5599SOL    HW118791   3.809   4.934   5.105  0.3151 -0.4521 -0.1514
 5599SOL    HW218792   3.675   4.974   5.163  0.4847  1.7611 -1.1961
 5600SOL     OW18793   8.711   3.272   6.689 -0.4655 -0.3460 -0.5217
 5600SOL    HW118794   8.736   3.325   6.614  2.2758 -0.3446  0.2785
 5600SOL    HW218795   8.622   3.244   6.670 -1.7011  3.5868 -1.5015
 5601SOL     OW18796   4.051   7.214   4.611 -0.2563  0.4610 -0.6589
 5601SOL    HW118797   4.116   7.255   4.668  0.3173  0.9708 -1.6568
 5601SOL    HW218798   3.994   7.285   4.583 -2.1364 -0.1689  1.2654
 5602SOL     OW18799   1.122   7.296   6.512  0.2358 -0.8203 -0.4111
 5602SOL    HW118800   1.054   7.285   6.578  0.7202  1.5526  0.5895
 5602SOL    HW218801   1.078   7.278   6.429 -1.5849  0.3492  0.2260
 5603SOL     OW18802   3.057   5.190   1.527 -0.4728 -0.7336  0.1084
 5603SOL    HW118803   3.106   5.265   1.494  0.8896 -1.2560  0.8598
 5603SOL    HW218804   2.966   5.220   1.529 -0.3157  0.0495 -1.9209
 5604SOL     OW18805   0.737   4.701   0.191 -0.3493  0.5929  0.4592
 5604SOL    HW118806   0.772   4.614   0.170 -0.8711  0.3374  0.6267
 5604SOL    HW218807   0.643   4.687   0.199 -0.6213  1.4414 -0.8974
 5605SOL     OW18808   1.534   4.483   0.445  0.2376 -0.1590 -0.5254
 5605SOL    HW118809   1.469   4.413   0.433 -0.2233  0.1138  0.3234
 5605SOL    HW218810   1.490   4.561   0.412 -0.7108  0.4352  1.9796
 5606SOL     OW18811   4.197   2.651   4.608 -0.4094  0.4946  0.1640
 5606SOL    HW118812   4.247   2.727   4.579  0.1608  0.1050  0.1202
 5606SOL    HW218813   4.260   2.597   4.656 -0.2993 -0.8775 -1.4130
 5607SOL     OW18814   8.041   5.967   0.648  0.0635  0.1388  0.5265
 5607SOL    HW118815   8.118   5.914   0.633  0.7025  1.2273 -0.1711
 5607SOL    HW218816   8.019   5.952   0.740  1.5763  0.4077  0.9579
 5608SOL     OW18817   8.407   8.811   1.363 -0.2934 -0.1553  0.2959
 5608SOL    HW118818   8.359   8.761   1.429  0.7971  1.0019  2.0407
 5608SOL    HW218819   8.362   8.896   1.360  0.5254  0.2995  0.6195
 5609SOL     OW18820   0.663   7.975   0.021  0.4330 -0.0878  0.0662
 5609SOL    HW118821   0.683   7.982  -0.073 -0.8759  1.9443 -0.1105
 5609SOL    HW218822   0.747   7.951   0.061  1.3402  0.3263 -1.4858
 5610SOL     OW18823   1.508   2.622   6.973 -0.0355  0.5437  0.2170
 5610SOL    HW118824   1.602   2.623   6.955  0.3068 -1.6106  1.4852
 5610SOL    HW218825   1.502   2.643   7.066 -0.6797 -0.6883  0.4626
 5611SOL     OW18826   4.234   7.871   0.274  0.2588 -0.2420 -0.0535
 5611SOL    HW118827   4.197   7.940   0.220  1.9637 -0.4865 -1.6641
 5611SOL    HW218828   4.201   7.888   0.362 -0.9141  1.4507 -0.7723
 5612SOL     OW18829   4.651   7.859   6.478 -0.1692  0.2005 -0.2674
 5612SOL    HW118830   4.686   7.895   6.560 -0.4665 -0.3924  0.1274
 5612SOL    HW218831   4.563   7.895   6.472 -1.1950 -1.8554  1.0977
 5613SOL     OW18832   0.219   7.705   8.734 -0.0851  0.8373  0.9235
 5613SOL    HW118833   0.273   7.772   8.775  0.3827 -1.6435  4.9380
 5613SOL    HW218834   0.175   7.662   8.807 -0.0574 -3.4356 -1.2570
 5614SOL     OW18835   7.969   1.565   2.613 -0.2181 -0.0479  0.3143
 5614SOL    HW118836   7.929   1.648   2.588  0.5853  0.7338  1.5024
 5614SOL    HW218837   8.043   1.555   2.553 -0.2032  0.1906  0.2946
 5615SOL     OW18838   0.864   6.191   0.740  0.0824 -0.1597  0.1549
 5615SOL    HW118839   0.876   6.146   0.657 -0.1030 -1.8641  1.0138
 5615SOL    HW218840   0.950   6.186   0.783  0.9017  2.8147 -0.8336
 5616SOL     OW18841   8.043   4.404   1.804  0.1465  0.6056  0.0902
 5616SOL    HW118842   8.115   4.467   1.808  0.5187  0.1516  0.5275
 5616SOL    HW218843   8.017   4.404   1.711  1.9448 -0.5956 -0.4734
 5617SOL     OW18844   2.158   5.455   5.558 -0.2224 -0.3373  0.6945
 5617SOL    HW118845   2.133   5.544   5.582  2.2322  0.6950 -0.2617
 5617SOL    HW218846   2.192   5.417   5.639 -0.6398 -0.1609  0.9518
 5618SOL     OW18847   2.723   0.241   2.012 -0.3062  0.3173 -0.2738
 5618SOL    HW118848   2.659   0.175   2.040  0.9049 -1.1534 -0.8371
 5618SOL    HW218849   2.670   0.311   1.974 -1.6583 -0.0882  0.7540
 5619SOL     OW18850   6.926   4.848   4.712  0.5509 -0.3003 -0.3913
 5619SOL    HW118851   6.951   4.820   4.624  0.1708  0.1129 -0.6339
 5619SOL    HW218852   7.007   4.879   4.752  0.9472 -1.5308 -0.1867
 5620SOL     OW18853   4.431   5.306   4.085 -0.0841 -0.2728  0.3047
 5620SOL    HW118854   4.385   5.245   4.026 -1.3777  0.7132  0.2663
 5620SOL    HW218855   4.464   5.250   4.155  0.9183 -1.3808 -0.9755
 5621SOL     OW18856   0.715   6.634   3.558  0.1066 -0.1336  0.4785
 5621SOL    HW118857   0.767   6.559   3.586  0.8528  0.1501 -0.1080
 5621SOL    HW218858   0.724   6.634   3.462  0.6511  1.0764  0.5180
 5622SOL     OW18859   7.412   4.779   0.006  0.7831  0.0758  0.4816
 5622SOL    HW118860   7.454   4.698  -0.024 -0.4439  0.3599 -2.3674
 5622SOL    HW218861   7.356   4.751   0.079  0.7420 -1.5643 -0.1333
 5623SOL     OW18862   5.130   2.872   4.520 -0.2530 -0.2628 -0.0470
 5623SOL    HW118863   5.198   2.823   4.475  1.8867  1.2696  1.2824
 5623SOL    HW218864   5.137   2.844   4.612  1.1758  2.4797  0.7926
 5624SOL     OW18865   4.422   5.798   4.243 -0.0964 -1.0082  0.0741
 5624SOL    HW118866   4.413   5.703   4.245 -0.9511 -0.9294  0.0972
 5624SOL    HW218867   4.333   5.832   4.256 -0.0593 -0.2142 -1.5276
 5625SOL     OW18868   1.404   0.042   4.481 -0.1188  0.4387  0.0131
 5625SOL    HW118869   1.443  -0.013   4.414 -0.0136 -0.7993  1.0568
 5625SOL    HW218870   1.340   0.096   4.434  0.3349 -0.0151 -1.1487
 5626SOL     OW18871   1.341   8.266   5.224  0.1949  0.0583 -0.0358
 5626SOL    HW118872   1.415   8.277   5.283 -0.2622  0.0943  0.5404
 5626SOL    HW218873   1.319   8.173   5.229 -1.0296  0.3760  1.3330
 5627SOL     OW18874   0.027   3.026   1.611 -0.1448  0.4743 -0.0681
 5627SOL    HW118875   0.014   2.976   1.691  1.7038 -1.4370 -0.8886
 5627SOL    HW218876   0.002   2.967   1.540 -1.6096  2.0782 -1.0035
 5628SOL     OW18877   7.624   0.616   8.556 -0.0513 -0.3307  0.1435
 5628SOL    HW118878   7.540   0.578   8.532 -0.1447  0.3136 -0.5925
 5628SOL    HW218879   7.605   0.710   8.567  0.9203  0.1634 -1.9144
 5629SOL     OW18880   2.779   4.596   8.423  0.1741  0.1119 -0.2921
 5629SOL    HW118881   2.721   4.574   8.350  1.1588  1.4053 -1.5192
 5629SOL    HW218882   2.724   4.644   8.484  0.0772  2.1095 -1.8457
 5630SOL     OW18883   3.254   4.096   5.635  0.1230  0.3207 -0.1535
 5630SOL    HW118884   3.345   4.123   5.628  0.6413 -0.2398  2.8505
 5630SOL    HW218885   3.257   4.001   5.641 -0.6987  0.2734 -0.3583
 5631SOL     OW18886   3.295   3.279   6.291 -0.1028 -0.1433  0.1512
 5631SOL    HW118887   3.295   3.367   6.251  0.2977  0.0502  0.5818
 5631SOL    HW218888   3.310   3.295   6.384 -1.2094 -0.5847  0.4212
 5632SOL     OW18889   5.308   0.042   5.545  0.3017  0.1593  0.1984
 5632SOL    HW118890   5.315   0.110   5.477  0.0166  0.9315  0.9195
 5632SOL    HW218891   5.378   0.062   5.607  0.8612 -0.8276 -0.0983
 5633SOL     OW18892   4.346   8.681   4.234  0.2748 -0.7881 -0.2463
 5633SOL    HW118893   4.374   8.659   4.323 -0.0780  1.5931  0.5309
 5633SOL    HW218894   4.297   8.762   4.244 -0.5281 -0.9194 -2.5380
 5634SOL     OW18895   8.722   6.212   8.281 -0.5496 -0.0278  0.4064
 5634SOL    HW118896   8.776   6.289   8.298  0.7274 -0.2934 -1.9246
 5634SOL    HW218897   8.670   6.200   8.360  0.2671  2.3538  1.3858
 5635SOL     OW18898   0.638   1.703   8.101 -0.5411  0.3756 -0.0617
 5635SOL    HW118899   0.653   1.610   8.116  0.5401  0.7334  1.1919
 5635SOL    HW218900   0.669   1.718   8.012  0.2975 -0.2507  0.1161
 5636SOL     OW18901   0.896   5.895   8.336 -0.0811 -0.3069  0.9390
 5636SOL    HW118902   0.802   5.879   8.335 -0.3144  0.4662  3.3235
 5636SOL    HW218903   0.907   5.978   8.290 -0.5308 -0.4884  0.4970
 5637SOL     OW18904   8.583   5.359   8.485  0.5332 -0.4618  0.2824
 5637SOL    HW118905   8.651   5.328   8.425 -0.9419 -0.3297 -1.5233
 5637SOL    HW218906   8.508   5.301   8.469  0.1745 -0.6248  2.2475
 5638SOL     OW18907   4.172   2.437   4.905 -0.0743  0.0494 -0.0380
 5638SOL    HW118908   4.253   2.403   4.867  1.2385  2.0905  0.7853
 5638SOL    HW218909   4.106   2.372   4.881  1.7975 -1.7530 -0.6495
 5639SOL     OW18910   6.298   4.156   0.579 -0.1114 -0.4200  0.1530
 5639SOL    HW118911   6.299   4.244   0.541 -0.1045 -0.0053  1.0898
 5639SOL    HW218912   6.363   4.160   0.649  0.0484 -1.2387  0.0548
 5640SOL     OW18913   2.455   7.345   5.096  0.3969 -0.0498  0.7409
 5640SOL    HW118914   2.413   7.261   5.115  0.7883 -0.3248  0.4035
 5640SOL    HW218915   2.384   7.401   5.065  0.2910 -0.5393  0.0791
 5641SOL     OW18916   2.210   0.927   3.848  0.2149  0.6800 -0.3495
 5641SOL    HW118917   2.181   0.877   3.925  0.9446  2.1873  0.9833
 5641SOL    HW218918   2.139   0.918   3.785  0.0627 -1.4883  0.0726
 5642SOL     OW18919   4.277   4.531   5.887  0.6438  0.2140  0.2306
 5642SOL    HW118920   4.257   4.457   5.944  1.7605  0.7987  1.4219
 5642SOL    HW218921   4.373   4.529   5.877  0.6544  1.2818 -0.0179
 5643SOL     OW18922   5.970   3.299   7.900  0.1037 -0.1438 -0.0711
 5643SOL    HW118923   6.006   3.381   7.866 -0.6519  0.2521  0.0541
 5643SOL    HW218924   5.935   3.322   7.986  1.6926 -1.0602  0.8636
 5644SOL     OW18925   3.696   8.845   2.249  0.4829 -0.3813 -0.4400
 5644SOL    HW118926   3.608   8.882   2.249  0.6677  0.0684 -1.0160
 5644SOL    HW218927   3.722   8.844   2.157  0.9492 -0.8279 -0.3119
 5645SOL     OW18928   6.731   6.589   1.393 -0.0178  0.3940  0.1269
 5645SOL    HW118929   6.765   6.665   1.440  0.1201 -0.6280  1.7561
 5645SOL    HW218930   6.781   6.515   1.428 -0.2156 -0.4808 -1.3477
 5646SOL     OW18931   3.725   4.541   1.440 -0.4791  0.3152 -0.1743
 5646SOL    HW118932   3.638   4.505   1.456 -0.9301  0.7693 -1.5248
 5646SOL    HW218933   3.777   4.466   1.412 -0.1663 -0.1280  1.4457
 5647SOL     OW18934   3.213   4.614   8.801  0.4302 -0.0015 -0.0474
 5647SOL    HW118935   3.161   4.678   8.850  0.6190  0.7800 -0.8489
 5647SOL    HW218936   3.204   4.641   8.710 -0.8583 -2.0989 -0.5978
 5648SOL     OW18937   8.160   1.189   4.505  0.4232 -0.2473  0.6652
 5648SOL    HW118938   8.166   1.211   4.598 -2.0193  0.3737  0.7199
 5648SOL    HW218939   8.112   1.262   4.466  0.8581 -0.8128 -0.9901
 5649SOL     OW18940   7.805   4.800   5.130 -0.2903 -0.3159  0.4380
 5649SOL    HW118941   7.791   4.790   5.224  1.1397  0.4522  0.7725
 5649SOL    HW218942   7.718   4.792   5.091 -0.7431 -1.9405  1.6831
 5650SOL     OW18943   8.014   2.621   2.181 -0.0699  0.6599 -0.4421
 5650SOL    HW118944   8.050   2.710   2.190 -0.1815  0.5063  4.0036
 5650SOL    HW218945   8.090   2.564   2.185 -0.1472  0.5241 -0.9448
 5651SOL     OW18946   2.908   4.006   6.262  0.2923 -0.1385  0.2563
 5651SOL    HW118947   2.990   4.025   6.217  0.8877 -3.0467 -0.0416
 5651SOL    HW218948   2.928   4.017   6.355  0.7421  0.0720  0.1348
 5652SOL     OW18949   5.693   3.959   7.881 -0.0163 -0.0323  0.4048
 5652SOL    HW118950   5.696   3.976   7.975 -0.9477  0.8197  0.3078
 5652SOL    HW218951   5.779   3.987   7.849 -0.4685  1.8677  0.6971
 5653SOL     OW18952   5.788   6.659   4.502 -0.2058  0.1548 -0.5704
 5653SOL    HW118953   5.880   6.655   4.477 -0.5246  0.8267 -1.9818
 5653SOL    HW218954   5.786   6.722   4.575  0.5960 -0.9126  0.4189
 5654SOL     OW18955   6.748   6.800   1.804  0.2812 -0.2361  0.0389
 5654SOL    HW118956   6.817   6.800   1.871  0.1462 -0.1275  0.1806
 5654SOL    HW218957   6.668   6.779   1.853  0.2140 -0.3633 -0.1248
 5655SOL     OW18958   6.029   4.662   3.648 -0.4991 -0.2502 -0.4870
 5655SOL    HW118959   6.098   4.609   3.689  1.1426  1.1452 -1.3304
 5655SOL    HW218960   5.973   4.690   3.721  0.6373 -0.2508  0.4037
 5656SOL     OW18961   1.624   7.268   7.979  0.1740  0.4031 -0.3049
 5656SOL    HW118962   1.656   7.181   7.955  1.4270  1.2339 -1.8225
 5656SOL    HW218963   1.650   7.279   8.070 -2.3409 -1.7920  0.8376
 5657SOL     OW18964   6.001   2.501   5.057  0.2137  0.5619 -0.1560
 5657SOL    HW118965   5.915   2.472   5.027 -0.0446  0.0129  1.0528
 5657SOL    HW218966   6.029   2.434   5.119  1.5439  0.7156 -0.5473
 5658SOL     OW18967   2.439   4.088   4.606  0.0279 -0.0585 -0.1691
 5658SOL    HW118968   2.509   4.146   4.638  0.7896 -1.3876  0.6958
 5658SOL    HW218969   2.368   4.099   4.670  0.0447  0.1650 -0.1886
 5659SOL     OW18970   3.104   8.223   7.722 -0.5098  0.4933  0.0710
 5659SOL    HW118971   3.057   8.204   7.641 -0.3823  3.5215 -0.8257
 5659SOL    HW218972   3.038   8.261   7.780  0.2319  2.4229 -0.2795
 5660SOL     OW18973   5.782   7.936   5.532 -0.1677 -0.2877 -0.3052
 5660SOL    HW118974   5.824   7.912   5.449 -1.4658 -2.1174 -0.4921
 5660SOL    HW218975   5.770   8.031   5.526  3.5550  0.3406 -0.3625
 5661SOL     OW18976   2.925   2.794   2.926  0.8192 -0.2773  0.1590
 5661SOL    HW118977   2.849   2.809   2.983  0.0575  1.0529 -1.1477
 5661SOL    HW218978   2.944   2.879   2.887  1.2696 -1.1387 -1.6248
 5662SOL     OW18979   3.530   4.458   0.741 -0.2618 -0.5344  0.3448
 5662SOL    HW118980   3.461   4.521   0.765 -0.5933 -0.0470 -1.6764
 5662SOL    HW218981   3.594   4.465   0.812 -1.2577  0.5935  1.1917
 5663SOL     OW18982   8.175   7.329   7.522 -0.1812  0.2882 -0.4056
 5663SOL    HW118983   8.114   7.293   7.586  0.9297 -0.5480  0.2164
 5663SOL    HW218984   8.145   7.419   7.509 -0.0775  0.7026  1.7903
 5664SOL     OW18985   7.942   5.013   0.323  0.2428 -0.4989 -0.7509
 5664SOL    HW118986   7.989   4.980   0.400 -1.2864  2.1943  1.5090
 5664SOL    HW218987   7.862   4.962   0.319  0.5512 -0.9801 -0.8999
 5665SOL     OW18988   1.629   5.575   2.447 -0.4566  0.1202  0.2074
 5665SOL    HW118989   1.561   5.509   2.436 -1.7210  0.9745  2.3896
 5665SOL    HW218990   1.694   5.535   2.503 -1.0321  0.5577  1.2092
 5666SOL     OW18991   5.095   5.694   2.629 -0.2551 -0.3966 -0.4179
 5666SOL    HW118992   5.154   5.669   2.700  0.8374  0.4976 -0.9814
 5666SOL    HW218993   5.151   5.698   2.552 -1.2598 -0.5133 -1.1686
 5667SOL     OW18994   5.108   2.140   6.003  0.3517 -0.4809  0.4740
 5667SOL    HW118995   5.014   2.145   6.021  0.2719  0.1688 -0.0814
 5667SOL    HW218996   5.115   2.162   5.910  1.2823  2.2861  1.0997
 5668SOL     OW18997   4.345   8.805   5.832  0.3055  0.1337 -0.0620
 5668SOL    HW118998   4.386   8.719   5.833  0.5299  0.2087  1.9006
 5668SOL    HW218999   4.268   8.795   5.777  1.2275 -0.8561 -1.2219
 5669SOL     OW19000   0.601   2.201   5.957  0.1707 -0.4710 -0.3538
 5669SOL    HW119001   0.669   2.189   6.024  0.2305  0.2282 -0.2743
 5669SOL    HW219002   0.636   2.157   5.880  1.3683  1.0370 -0.7264
 5670SOL     OW19003   3.698   1.495   7.621  0.0140  0.2125 -0.4090
 5670SOL    HW119004   3.764   1.444   7.574 -0.7368  1.5944 -3.1763
 5670SOL    HW219005   3.673   1.565   7.560 -2.9511  0.6246  1.0769
 5671SOL     OW19006   2.011   8.527   0.311 -0.1146 -0.2351  0.2262
 5671SOL    HW119007   2.043   8.614   0.288  2.2940 -1.2368 -0.4334
 5671SOL    HW219008   2.038   8.515   0.402 -0.1308 -0.4287  0.2055
 5672SOL     OW19009   4.578   6.823   7.388  0.4913  0.2891  0.3208
 5672SOL    HW119010   4.546   6.748   7.437 -2.4123  0.1372 -1.5819
 5672SOL    HW219011   4.563   6.898   7.446 -2.2910  0.0507  0.0508
 5673SOL     OW19012   4.616   3.737   3.709  0.2488 -0.2450  0.0835
 5673SOL    HW119013   4.627   3.832   3.701  1.8356 -0.2399  1.7143
 5673SOL    HW219014   4.537   3.727   3.761  1.2311  0.3044  1.7698
 5674SOL     OW19015   0.173   5.297   6.239 -0.4907 -0.1531 -0.6957
 5674SOL    HW119016   0.256   5.307   6.193  1.8826  1.2096  3.3878
 5674SOL    HW219017   0.119   5.368   6.207  2.0561  2.4474  0.3378
 5675SOL     OW19018   7.007   0.374   8.232  0.3864 -0.0433 -0.0213
 5675SOL    HW119019   7.015   0.328   8.149 -1.0435  0.8983 -0.7138
 5675SOL    HW219020   6.952   0.449   8.213 -2.3137 -1.2594  2.3206
 5676SOL     OW19021   4.050   5.472   4.523  0.9001  0.2724 -0.0034
 5676SOL    HW119022   4.026   5.402   4.463 -1.9070  1.5262 -0.5082
 5676SOL    HW219023   4.054   5.430   4.609  0.0613 -0.6747 -0.4084
 5677SOL     OW19024   3.053   3.483   6.262 -0.4334 -0.3619  0.9583
 5677SOL    HW119025   3.069   3.570   6.223 -2.0027 -0.0252  1.0273
 5677SOL    HW219026   3.052   3.424   6.187  0.6619 -0.3520  0.9106
 5678SOL     OW19027   7.368   5.990   6.082  0.2565 -0.4576  0.6003
 5678SOL    HW119028   7.305   6.046   6.127 -0.0725 -0.6434  0.3768
 5678SOL    HW219029   7.349   6.003   5.989 -0.6688 -1.8703  0.5526
 5679SOL     OW19030   0.725   1.747   5.086  0.1078  0.1721 -0.7251
 5679SOL    HW119031   0.632   1.747   5.066 -0.1234 -1.0972  0.2072
 5679SOL    HW219032   0.746   1.655   5.101  1.7970  0.2720 -2.1307
 5680SOL     OW19033   2.953   1.221   5.685 -0.2857  0.0513  0.2217
 5680SOL    HW119034   2.975   1.299   5.634  1.2651 -0.2675  0.3409
 5680SOL    HW219035   2.870   1.191   5.649 -0.3265  1.1021 -0.6021
 5681SOL     OW19036   3.334   0.314   3.725  0.1546  0.3685  0.3755
 5681SOL    HW119037   3.310   0.401   3.757 -1.8699  0.4607 -1.2112
 5681SOL    HW219038   3.265   0.291   3.664  0.5190 -2.4807  0.9063
 5682SOL     OW19039   7.199   0.475   3.955  0.2900  0.1710  0.2209
 5682SOL    HW119040   7.135   0.411   3.986  1.2997 -1.1456 -0.3158
 5682SOL    HW219041   7.281   0.448   3.995  1.1311 -0.0917 -1.6239
 5683SOL     OW19042   0.089   2.209   6.183  0.7635 -0.0232  0.1201
 5683SOL    HW119043   0.169   2.259   6.200 -0.3619  1.9122 -0.0050
 5683SOL    HW219044   0.047   2.256   6.111  0.0595 -1.6890 -0.5975
 5684SOL     OW19045   3.794   0.757   5.107 -0.2602 -0.0050 -0.2913
 5684SOL    HW119046   3.830   0.675   5.073  0.4423 -1.3399  3.1967
 5684SOL    HW219047   3.700   0.751   5.092 -0.0857 -0.9550 -1.0759
 5685SOL     OW19048   6.719   5.709   3.224 -0.1790 -0.0937 -0.5729
 5685SOL    HW119049   6.678   5.791   3.198 -1.3457 -0.6253 -0.4925
 5685SOL    HW219050   6.693   5.698   3.316  0.3173 -0.3489 -0.4601
 5686SOL     OW19051   1.039   8.722   0.130  0.0200  0.0542  0.6313
 5686SOL    HW119052   1.020   8.649   0.072  2.0770 -0.4726  0.5389
 5686SOL    HW219053   0.984   8.794   0.099 -1.9580 -1.3897  0.6546
 5687SOL     OW19054   2.499   3.395   0.948 -0.7609  0.4033 -0.1299
 5687SOL    HW119055   2.448   3.466   0.987 -3.6106 -0.8504 -1.3253
 5687SOL    HW219056   2.501   3.327   1.015  0.6458  0.9595  0.4361
 5688SOL     OW19057   3.309   2.339   2.422  0.2797  0.9376  0.1033
 5688SOL    HW119058   3.286   2.263   2.367  1.6222 -0.2516  1.1193
 5688SOL    HW219059   3.308   2.413   2.361  2.8184 -0.4779 -1.8775
 5689SOL     OW19060   6.860   0.177   0.629  0.3785  0.5873  0.1851
 5689SOL    HW119061   6.825   0.261   0.601 -1.6914 -0.2067  0.2013
 5689SOL    HW219062   6.906   0.195   0.711 -0.3673  1.6429  0.3865
 5690SOL     OW19063   3.518   7.763   6.260 -0.0497 -0.0567 -0.4587
 5690SOL    HW119064   3.504   7.857   6.270 -1.8112 -0.3887  0.6773
 5690SOL    HW219065   3.483   7.742   6.174  0.3476  0.3184 -0.7147
 5691SOL     OW19066   0.753   4.993   6.216 -0.3421  0.2340 -0.0679
 5691SOL    HW119067   0.784   4.904   6.198 -1.4508  0.0441 -1.1493
 5691SOL    HW219068   0.662   4.981   6.245 -0.4313  0.9963 -0.0169
 5692SOL     OW19069   5.623   3.497   7.918 -0.6629 -0.3429  0.4923
 5692SOL    HW119070   5.538   3.540   7.923  0.6596  2.3833  1.5321
 5692SOL    HW219071   5.644   3.498   7.824 -1.1270  0.3888  0.3819
 5693SOL     OW19072   5.882   7.633   2.803  0.2785  0.2237  0.3263
 5693SOL    HW119073   5.807   7.600   2.853 -0.2363 -0.0593 -0.6117
 5693SOL    HW219074   5.849   7.643   2.714  1.6410 -0.9651 -0.3513
 5694SOL     OW19075   8.808   6.484   4.365  0.1940  0.9192  0.2771
 5694SOL    HW119076   8.717   6.494   4.391 -0.3161  1.0976 -1.4220
 5694SOL    HW219077   8.837   6.572   4.343  0.2249  0.6547 -0.8148
 5695SOL     OW19078   4.184   2.225   3.502 -0.7863 -0.8071  0.2987
 5695SOL    HW119079   4.180   2.321   3.510  0.6651 -0.6520 -0.4745
 5695SOL    HW219080   4.095   2.196   3.522 -1.7772  0.8595 -1.3412
 5696SOL     OW19081   0.735   5.498   0.300 -0.1784  0.3549 -0.3059
 5696SOL    HW119082   0.784   5.440   0.358  1.5471  1.0963 -0.9487
 5696SOL    HW219083   0.695   5.563   0.358  1.3514  0.9630  0.1157
 5697SOL     OW19084   7.504   0.923   0.902 -0.0866  0.3770  0.2944
 5697SOL    HW119085   7.572   0.876   0.950 -1.6670  1.4271  3.8646
 5697SOL    HW219086   7.540   1.011   0.888 -0.1155  0.4612  0.7517
 5698SOL     OW19087   6.903   7.708   2.319  0.3174 -0.5052  0.6637
 5698SOL    HW119088   6.989   7.747   2.336  0.2302 -0.4025  0.8613
 5698SOL    HW219089   6.921   7.615   2.306  0.4569 -0.4848  0.7148
 5699SOL     OW19090   4.243   6.827   5.248  0.0935 -0.0056  0.4022
 5699SOL    HW119091   4.214   6.751   5.197  0.6711  0.8977 -1.3821
 5699SOL    HW219092   4.242   6.899   5.184  2.2336  0.9034  1.3154
 5700SOL     OW19093   0.159   8.543   7.849  0.0781  0.0023 -0.2124
 5700SOL    HW119094   0.243   8.501   7.833 -0.0187 -0.0331 -0.6526
 5700SOL    HW219095   0.113   8.484   7.908  0.7111  0.4590  0.7639
 5701SOL     OW19096   3.093   1.027   0.961 -0.2263  0.4870 -0.6189
 5701SOL    HW119097   3.176   1.055   1.000 -0.0017  0.1053 -0.8181
 5701SOL    HW219098   3.063   1.102   0.910 -0.9187  1.2879  0.9073
 5702SOL     OW19099   0.853   5.334   0.492 -0.9867 -0.6178  0.1152
 5702SOL    HW119100   0.866   5.358   0.584 -2.8428  0.3914  0.1813
 5702SOL    HW219101   0.840   5.239   0.494 -2.5238 -0.4427  1.1633
 5703SOL     OW19102   1.000   6.468   8.576  0.0958  0.1873  0.4518
 5703SOL    HW119103   0.930   6.478   8.640  0.1275  0.8498  0.3904
 5703SOL    HW219104   0.960   6.495   8.493  0.4918  0.8148  0.4587
 5704SOL     OW19105   4.119   1.467   7.220  0.2228 -0.5081 -0.3634
 5704SOL    HW119106   4.195   1.419   7.252  0.4873  0.4443  0.4630
 5704SOL    HW219107   4.134   1.558   7.247  0.7928  0.5383 -3.7330
 5705SOL     OW19108   8.075   4.999   2.121 -0.9782  0.1668 -0.5995
 5705SOL    HW119109   8.011   5.068   2.137 -2.2558 -1.1121  0.0793
 5705SOL    HW219110   8.160   5.042   2.129 -1.7287  1.5366  0.3274
 5706SOL     OW19111   6.955   3.295   1.640  0.2847 -0.4998  0.1808
 5706SOL    HW119112   7.030   3.355   1.640  0.0417 -0.1884 -0.3965
 5706SOL    HW219113   6.988   3.216   1.598 -0.6548  0.9104 -3.6422
 5707SOL     OW19114   1.260   3.931   1.315  0.1427 -0.2369 -0.3037
 5707SOL    HW119115   1.181   3.879   1.327 -0.8170  0.5814 -2.5650
 5707SOL    HW219116   1.315   3.878   1.257  0.5089 -0.0478 -0.1381
 5708SOL     OW19117   2.674   1.874   7.714  0.1214 -0.2200  0.0539
 5708SOL    HW119118   2.685   1.800   7.654  1.6083 -0.5449  0.6806
 5708SOL    HW219119   2.674   1.833   7.801  0.6658  0.4726  0.3874
 5709SOL     OW19120   8.753   1.057   6.205 -0.8027  0.1290  0.1155
 5709SOL    HW119121   8.780   0.968   6.182  0.1379  0.2467  0.7357
 5709SOL    HW219122   8.737   1.100   6.121 -0.1757 -0.2877 -0.2192
 5710SOL     OW19123   0.998   4.251   5.615  0.1378  0.3130 -0.0288
 5710SOL    HW119124   1.083   4.291   5.595  0.1043 -0.3134 -1.5288
 5710SOL    HW219125   0.966   4.219   5.531 -0.7566 -1.0849  0.8026
 5711SOL     OW19126   3.029   0.872   2.186 -0.1316  0.1075  0.0122
 5711SOL    HW119127   3.070   0.806   2.242  2.4544  1.0507 -0.6332
 5711SOL    HW219128   2.948   0.831   2.155 -0.1147 -1.5620  2.0107
 5712SOL     OW19129   2.877   0.853   3.025  0.4638 -0.2834 -0.2215
 5712SOL    HW119130   2.873   0.807   2.941 -0.9509 -1.6387  0.5318
 5712SOL    HW219131   2.808   0.813   3.077  0.8624  1.0042  1.3703
 5713SOL     OW19132   6.952   5.807   0.519  0.0086  0.0667 -0.5174
 5713SOL    HW119133   6.952   5.844   0.431 -0.5019 -0.0915 -0.5870
 5713SOL    HW219134   7.043   5.781   0.534  0.1876  0.4901 -0.8273
 5714SOL     OW19135   5.504   6.112   3.262  0.2743 -0.1355 -0.2367
 5714SOL    HW119136   5.496   6.065   3.179  1.2901  0.8140 -0.9026
 5714SOL    HW219137   5.445   6.187   3.252  1.5685  0.8442 -0.7608
 5715SOL     OW19138   0.505   4.777   4.594 -0.2513  0.1623  0.5824
 5715SOL    HW119139   0.446   4.765   4.668  1.3574  0.2298  1.9404
 5715SOL    HW219140   0.555   4.856   4.615  1.2368 -0.6204  0.1664
 5716SOL     OW19141   3.489   3.827   2.552  0.4691 -0.0833 -0.7923
 5716SOL    HW119142   3.552   3.774   2.505  0.1259  0.3329 -1.7523
 5716SOL    HW219143   3.431   3.862   2.484  1.0403  2.0072 -0.2927
 5717SOL     OW19144   7.939   7.993   0.309 -0.1125 -0.0359  0.1654
 5717SOL    HW119145   7.966   7.938   0.235  1.2664  0.8976 -0.0541
 5717SOL    HW219146   7.864   8.042   0.276  0.9156  0.8933 -0.8794
 5718SOL     OW19147   2.558   5.190   0.668 -0.0813  0.8448 -0.0823
 5718SOL    HW119148   2.645   5.186   0.628  0.3211 -0.3043  0.8687
 5718SOL    HW219149   2.570   5.152   0.755 -1.0460  2.8138  0.9738
 5719SOL     OW19150   1.339   6.956   8.400 -0.1698  0.2115  0.1815
 5719SOL    HW119151   1.423   6.997   8.382 -0.0955 -0.6796 -1.7381
 5719SOL    HW219152   1.276   7.028   8.397  0.4664  0.8616  1.5004
 5720SOL     OW19153   3.626   2.558   2.493 -0.2376 -0.1592 -0.2977
 5720SOL    HW119154   3.698   2.542   2.432 -0.2826 -0.6565 -0.2203
 5720SOL    HW219155   3.592   2.471   2.514 -0.5842  0.0459 -0.0000
 5721SOL     OW19156   6.017   7.803   6.966 -0.0500  0.1150 -0.2450
 5721SOL    HW119157   5.999   7.872   6.902 -0.5670  0.0275 -0.2000
 5721SOL    HW219158   6.112   7.791   6.963  0.3202  2.1722  1.1366
 5722SOL     OW19159   3.390   8.250   1.147  0.3518 -0.0309 -0.4421
 5722SOL    HW119160   3.412   8.339   1.174 -0.1587 -0.0254 -0.0528
 5722SOL    HW219161   3.474   8.204   1.150  0.5236  0.2950 -0.1104
 5723SOL     OW19162   8.286   0.672   7.981 -0.1527  0.6163  0.2821
 5723SOL    HW119163   8.192   0.678   7.998 -0.7766 -0.6428 -2.2440
 5723SOL    HW219164   8.307   0.579   7.989  0.5570  0.6809 -0.6282
 5724SOL     OW19165   7.237   3.968   0.067 -0.2391  0.5981  0.3475
 5724SOL    HW119166   7.209   3.876   0.067 -1.8816  1.0715  0.6260
 5724SOL    HW219167   7.298   3.974  -0.007 -0.2688 -0.6569  0.1888
 5725SOL     OW19168   7.018   5.644   4.428 -0.0448 -0.9537 -0.0343
 5725SOL    HW119169   6.933   5.685   4.416 -0.3324 -1.5468 -0.0143
 5725SOL    HW219170   7.002   5.571   4.487  0.4727 -1.0909 -0.0563
 5726SOL     OW19171   3.458   1.537   6.610 -1.2113  0.3460  0.0972
 5726SOL    HW119172   3.527   1.516   6.673 -0.3305  1.1160 -0.5985
 5726SOL    HW219173   3.424   1.451   6.583 -3.1277 -0.0587  3.1594
 5727SOL     OW19174   1.041   7.631   6.380  0.5416 -0.1253 -0.2175
 5727SOL    HW119175   0.950   7.639   6.407  0.4755  1.0025 -0.6871
 5727SOL    HW219176   1.038   7.576   6.301  0.1516  0.5812 -0.7109
 5728SOL     OW19177   2.959   1.735   5.823 -0.0546  0.1079 -0.1766
 5728SOL    HW119178   2.880   1.786   5.842 -0.1436  0.1056 -0.5212
 5728SOL    HW219179   2.940   1.647   5.854  0.3261  0.4136  0.9723
 5729SOL     OW19180   1.202   7.084   5.270 -0.2132  0.4558  0.4814
 5729SOL    HW119181   1.156   7.020   5.325 -1.9177 -0.4180 -1.7698
 5729SOL    HW219182   1.132   7.127   5.220  1.2355 -0.2421 -2.3992
 5730SOL     OW19183   7.005   1.119   4.704 -0.3352 -0.1182 -0.4948
 5730SOL    HW119184   7.087   1.070   4.701 -0.7675 -0.8965  0.0100
 5730SOL    HW219185   6.947   1.065   4.757 -2.0516 -0.8967 -3.0278
 5731SOL     OW19186   2.149   4.576   1.439  0.4599  1.0226 -0.8406
 5731SOL    HW119187   2.092   4.644   1.475 -1.3811 -0.6650 -0.4163
 5731SOL    HW219188   2.122   4.568   1.348  0.2846  0.4852 -0.7425
 5732SOL     OW19189   3.306   7.789   7.867 -0.2046 -0.4785  0.4685
 5732SOL    HW119190   3.330   7.723   7.802 -0.7668  0.0412 -0.2867
 5732SOL    HW219191   3.210   7.785   7.871 -0.2867  0.6165  0.0437
 5733SOL     OW19192   6.039   5.967   2.261  0.3370 -0.1473  0.0088
 5733SOL    HW119193   6.091   5.962   2.180  1.4866  0.9904  0.6543
 5733SOL    HW219194   5.949   5.961   2.231  0.7712 -0.7330 -1.2732
 5734SOL     OW19195   3.748   4.878   5.489  0.3591 -0.2851  0.6679
 5734SOL    HW119196   3.777   4.803   5.541 -0.8123 -1.7406 -0.6697
 5734SOL    HW219197   3.825   4.904   5.438  0.7494 -0.6146  1.0806
 5735SOL     OW19198   5.101   1.757   3.231 -0.4000  0.1217  0.3119
 5735SOL    HW119199   5.181   1.717   3.264  0.2330  1.0274 -0.0726
 5735SOL    HW219200   5.131   1.833   3.181 -1.3905 -0.5331 -1.3438
 5736SOL     OW19201   2.995   6.322   6.782  0.0776 -0.0359 -0.0162
 5736SOL    HW119202   3.025   6.314   6.872 -2.1240  0.7645  0.8721
 5736SOL    HW219203   2.917   6.378   6.788  0.7596  1.3754 -2.6242
 5737SOL     OW19204   8.681   5.150   1.956 -0.6463  0.0492  0.1517
 5737SOL    HW119205   8.709   5.154   1.865 -0.5736  0.1368  0.1789
 5737SOL    HW219206   8.645   5.237   1.975  0.4408  0.4200  0.5681
 5738SOL     OW19207   6.730   4.329   6.859 -0.4079 -0.3308 -0.4041
 5738SOL    HW119208   6.707   4.422   6.865  2.4908  0.4902 -0.6528
 5738SOL    HW219209   6.826   4.328   6.860 -0.3584 -3.3656 -0.0679
 5739SOL     OW19210   4.248   5.798   0.206  0.0195  0.2145 -0.0589
 5739SOL    HW119211   4.272   5.798   0.113  1.6026 -1.2720  0.2968
 5739SOL    HW219212   4.156   5.774   0.207 -0.3398  1.3844 -1.2745
 5740SOL     OW19213   7.531   3.931   8.858  0.4109  0.0582  0.4332
 5740SOL    HW119214   7.609   3.953   8.808 -0.1905  0.6824 -0.2426
 5740SOL    HW219215   7.549   3.965   8.946  1.3960 -0.8935  0.6116
 5741SOL     OW19216   5.717   1.964   0.777  0.6859  0.3670  0.2764
 5741SOL    HW119217   5.708   1.937   0.868  2.9005  0.5342  0.5933
 5741SOL    HW219218   5.752   1.887   0.732 -2.3907 -0.4666 -0.9865
 5742SOL     OW19219   0.899   8.059   4.301 -0.0690  0.3691  0.3932
 5742SOL    HW119220   0.960   8.073   4.374 -0.7247  0.9902  0.8424
 5742SOL    HW219221   0.841   8.135   4.304 -1.6201 -0.7737  0.7401
 5743SOL     OW19222   7.634   8.450   2.491 -0.0013 -0.2610  0.0227
 5743SOL    HW119223   7.570   8.411   2.550  0.3960  0.1958  0.7855
 5743SOL    HW219224   7.606   8.541   2.481 -0.8761 -0.6815 -1.6723
 5744SOL     OW19225   2.494   5.809   8.215 -0.3509  0.0836 -0.5196
 5744SOL    HW119226   2.495   5.742   8.147  1.3778 -0.3104 -0.1497
 5744SOL    HW219227   2.430   5.778   8.279  1.6937 -2.2013  0.5593
 5745SOL     OW19228   5.567   4.557   7.255  0.1454 -0.3091  0.4154
 5745SOL    HW119229   5.628   4.485   7.242 -0.0998 -0.4802  0.1821
 5745SOL    HW219230   5.618   4.636   7.235 -0.2637 -0.5617 -1.9952
 5746SOL     OW19231   3.933   1.667   8.750  0.6863 -0.1984 -0.1209
 5746SOL    HW119232   3.850   1.691   8.707  1.5828 -0.5722 -2.2061
 5746SOL    HW219233   3.911   1.593   8.806 -0.2513 -0.8403 -1.2925
 5747SOL     OW19234   4.353   7.622   5.169 -0.1301 -0.1482 -0.0898
 5747SOL    HW119235   4.433   7.636   5.219 -0.7388  0.7330  0.6750
 5747SOL    HW219236   4.292   7.584   5.232 -0.9329  1.0464 -0.1080
 5748SOL     OW19237   5.556   5.534   6.383 -0.2962  0.0369 -0.4366
 5748SOL    HW119238   5.644   5.556   6.416 -0.2258  0.2266 -0.7432
 5748SOL    HW219239   5.542   5.595   6.310  0.3223 -1.5870 -1.9756
 5749SOL     OW19240   5.763   6.625   2.401  0.4945  0.2733  0.4242
 5749SOL    HW119241   5.799   6.585   2.480  0.1500 -0.1301  0.3810
 5749SOL    HW219242   5.677   6.657   2.429 -0.6497 -1.9327 -0.3440
 5750SOL     OW19243   1.533   3.700   8.810  0.8655  0.5537  0.6194
 5750SOL    HW119244   1.552   3.738   8.896  0.0057 -0.3624  1.2473
 5750SOL    HW219245   1.452   3.652   8.823 -0.5083  2.2089 -1.3010
 5751SOL     OW19246   0.871   1.945   1.625 -0.4063  0.4588  0.4800
 5751SOL    HW119247   0.944   1.883   1.626 -1.3808 -0.7712  2.9531
 5751SOL    HW219248   0.800   1.899   1.669 -3.4350  0.8282 -3.4494
 5752SOL     OW19249   4.450   6.648   0.432 -0.9066  0.4774  0.0481
 5752SOL    HW119250   4.479   6.715   0.370 -0.8804 -0.1683 -0.6515
 5752SOL    HW219251   4.483   6.565   0.395 -1.3474  0.0276  0.6418
 5753SOL     OW19252   4.449   3.829   0.138  0.5747  0.4800  0.4393
 5753SOL    HW119253   4.362   3.845   0.175 -0.0426 -2.7680  0.6932
 5753SOL    HW219254   4.433   3.814   0.045  1.0107  0.6508  0.3325
 5754SOL     OW19255   7.542   0.810   0.145  0.4914 -0.5646  0.2819
 5754SOL    HW119256   7.509   0.766   0.223 -1.0243 -1.6346 -0.8992
 5754SOL    HW219257   7.558   0.739   0.083  0.1049  0.3854 -0.9284
 5755SOL     OW19258   3.240   2.562   6.817 -0.4321 -0.2824  0.9832
 5755SOL    HW119259   3.244   2.486   6.758  0.2584  0.0199  0.6276
 5755SOL    HW219260   3.325   2.561   6.862 -0.0323  0.8029  0.2974
 5756SOL     OW19261   1.661   7.577   1.070 -0.1587  0.0284  0.5506
 5756SOL    HW119262   1.581   7.557   1.021  1.2203 -0.6508 -1.5433
 5756SOL    HW219263   1.706   7.493   1.078  0.4687  0.4339  1.5558
 5757SOL     OW19264   5.703   0.657   5.628  0.0869 -0.3046 -0.3228
 5757SOL    HW119265   5.657   0.707   5.695  1.6376  1.1623 -0.2964
 5757SOL    HW219266   5.679   0.700   5.546 -1.6539 -1.9757 -0.7632
 5758SOL     OW19267   4.227   0.404   1.449 -0.3033  0.0828 -0.2508
 5758SOL    HW119268   4.150   0.376   1.497  1.0198  0.1885  2.0902
 5758SOL    HW219269   4.301   0.376   1.503  1.3028  0.5877 -2.0525
 5759SOL     OW19270   5.255   6.964   6.828  0.1976  0.1179  0.1619
 5759SOL    HW119271   5.290   6.889   6.781 -0.0163  0.6690 -0.9118
 5759SOL    HW219272   5.330   6.997   6.879  0.2152 -0.9732  0.8823
 5760SOL     OW19273   5.469   3.510   0.038  0.2102 -0.2403  0.4814
 5760SOL    HW119274   5.421   3.586   0.005 -1.3657 -1.6764 -0.7459
 5760SOL    HW219275   5.515   3.476  -0.040 -0.6058 -1.5832  0.5587
 5761SOL     OW19276   3.964   5.193   3.899  0.0937 -0.4203  0.8007
 5761SOL    HW119277   3.899   5.188   3.969  1.1644 -1.6602  1.7513
 5761SOL    HW219278   4.020   5.116   3.912  0.2356 -0.7754 -1.5319
 5762SOL     OW19279   2.328   8.670   2.296 -0.3021 -0.0783 -0.0513
 5762SOL    HW119280   2.296   8.740   2.239  0.7892 -0.7975 -1.5936
 5762SOL    HW219281   2.378   8.715   2.364 -1.2869  0.7596  0.1457
 5763SOL     OW19282   4.512   8.348   0.512  0.2832  0.1238 -0.1165
 5763SOL    HW119283   4.551   8.431   0.485  3.6552 -1.1934  0.1316
 5763SOL    HW219284   4.477   8.364   0.599  0.8681  1.2907 -0.0820
 5764SOL     OW19285   2.497   2.052   8.045 -0.3408 -0.4388 -0.3053
 5764SOL    HW119286   2.545   2.085   8.120 -1.6153 -0.8825  0.7360
 5764SOL    HW219287   2.416   2.104   8.043 -0.0182  0.0621 -1.8126
 5765SOL     OW19288   2.155   1.869   2.807 -0.3052 -0.1365  0.6119
 5765SOL    HW119289   2.232   1.815   2.792 -0.6205 -0.3715 -0.2138
 5765SOL    HW219290   2.119   1.837   2.890  1.3067  0.9838  1.8049
 5766SOL     OW19291   8.571   0.230   8.812 -0.1715 -0.6786 -0.7067
 5766SOL    HW119292   8.605   0.198   8.728 -0.8416  0.2915 -1.3566
 5766SOL    HW219293   8.629   0.190   8.877  0.4008 -1.3919 -1.6226
 5767SOL     OW19294   1.290   1.384   7.863 -0.1978  0.0218  0.4022
 5767SOL    HW119295   1.297   1.478   7.880 -0.6188  0.1208  0.0466
 5767SOL    HW219296   1.380   1.356   7.846 -0.3081  0.7970 -1.6739
 5768SOL     OW19297   6.459   8.752   0.654 -0.2330 -0.3025  0.3259
 5768SOL    HW119298   6.507   8.834   0.662 -2.7737  1.1610  1.8330
 5768SOL    HW219299   6.457   8.735   0.560  0.0062  1.6015 -0.0711
 5769SOL     OW19300   7.289   3.720   0.598 -0.3902 -0.2591  0.4387
 5769SOL    HW119301   7.251   3.700   0.684 -3.6135 -1.7034 -1.1589
 5769SOL    HW219302   7.220   3.766   0.551  1.5939  1.2832 -1.1874
 5770SOL     OW19303   3.691   5.560   0.011 -0.6232  0.5699  0.2673
 5770SOL    HW119304   3.753   5.495  -0.022  2.1437  2.4982  1.2558
 5770SOL    HW219305   3.645   5.515   0.082  0.4507 -0.6340  0.2476
 5771SOL     OW19306   7.291   1.446   4.891  0.2146 -0.2001  0.5175
 5771SOL    HW119307   7.321   1.530   4.925 -0.1518 -0.5734  1.8167
 5771SOL    HW219308   7.293   1.387   4.967  0.4005 -1.3467 -0.3507
 5772SOL     OW19309   7.607   5.173   8.404  0.1044  0.9072  0.2752
 5772SOL    HW119310   7.588   5.114   8.477 -1.1461  0.5750 -0.2998
 5772SOL    HW219311   7.688   5.139   8.366 -0.6271 -0.4989 -0.0911
 5773SOL     OW19312   0.150   6.513   3.145 -0.0862  0.0450  0.1191
 5773SOL    HW119313   0.107   6.515   3.059  2.3309 -2.6571 -1.3621
 5773SOL    HW219314   0.159   6.420   3.164  0.3278  0.5818  2.8881
 5774SOL     OW19315   1.820   8.294   8.517  0.6812 -1.0690 -0.2726
 5774SOL    HW119316   1.881   8.274   8.446  1.1903 -1.9929  0.3927
 5774SOL    HW219317   1.836   8.385   8.538  1.0245 -0.9835 -0.8734
 5775SOL     OW19318   1.472   7.377   0.333 -0.0277  0.0969  0.1794
 5775SOL    HW119319   1.455   7.380   0.239  1.0329 -0.7129 -0.0556
 5775SOL    HW219320   1.493   7.285   0.351  1.9453  0.6258  0.7903
 5776SOL     OW19321   5.625   2.560   0.608 -0.1387  0.2827  0.2892
 5776SOL    HW119322   5.558   2.625   0.585  0.3651  1.8620  2.8870
 5776SOL    HW219323   5.697   2.612   0.644  1.2863 -1.5849  0.2642
 5777SOL     OW19324   3.865   3.499   5.070 -0.2381 -1.0217  0.9591
 5777SOL    HW119325   3.897   3.410   5.058  0.7600 -0.6265  0.6092
 5777SOL    HW219326   3.868   3.514   5.164  1.7702 -0.5937  0.8685
 5778SOL     OW19327   6.189   1.868   4.679 -0.5747 -0.0661  0.2478
 5778SOL    HW119328   6.143   1.843   4.759 -1.5787 -2.6948 -1.0770
 5778SOL    HW219329   6.249   1.795   4.661 -0.0407  0.6773 -1.1771
 5779SOL     OW19330   1.086   4.155   6.337 -0.3539 -0.0380  0.1957
 5779SOL    HW119331   0.993   4.136   6.326 -0.5318  1.3002 -0.7751
 5779SOL    HW219332   1.129   4.111   6.264 -0.6500  2.2217 -1.4274
 5780SOL     OW19333   2.747   1.098   5.556  0.4382  0.1810 -0.1596
 5780SOL    HW119334   2.660   1.132   5.533  0.8691  1.9918  0.6947
 5780SOL    HW219335   2.731   1.007   5.580 -1.2010  0.4292 -0.1583
 5781SOL     OW19336   7.267   0.464   1.895  0.9970 -0.3758 -0.1730
 5781SOL    HW119337   7.335   0.529   1.875  0.1791  0.4361 -0.3957
 5781SOL    HW219338   7.297   0.422   1.975  0.5434  1.7877  1.2251
 5782SOL     OW19339   3.251   6.214   5.348 -0.1456  0.0956  0.4593
 5782SOL    HW119340   3.285   6.155   5.281  0.0183  1.3453 -0.5983
 5782SOL    HW219341   3.309   6.202   5.423  2.0880  1.4191 -0.9372
 5783SOL     OW19342   5.937   3.889   3.500 -0.3518  0.0761  0.6365
 5783SOL    HW119343   5.932   3.810   3.447  0.2289 -0.0428  0.7543
 5783SOL    HW219344   5.963   3.958   3.438  2.3583 -0.4315  1.0731
 5784SOL     OW19345   3.077   7.545   3.019  0.0100 -0.4305  0.8570
 5784SOL    HW119346   3.070   7.552   2.924  1.4466  0.5026  0.7905
 5784SOL    HW219347   2.986   7.543   3.050 -0.4703 -1.2283 -0.5483
 5785SOL     OW19348   8.511   8.170   1.205  0.0008 -0.0520 -0.6229
 5785SOL    HW119349   8.552   8.177   1.119  1.8693 -0.1315  0.2292
 5785SOL    HW219350   8.529   8.080   1.234 -0.0134  0.1796  0.1330
 5786SOL     OW19351   2.364   0.990   0.892 -0.3196  0.4675  0.6963
 5786SOL    HW119352   2.426   1.060   0.873  0.7715 -0.7237 -0.3818
 5786SOL    HW219353   2.278   1.027   0.872 -0.0209  2.2060  2.4000
 5787SOL     OW19354   5.034   7.938   4.035  0.3152  0.2961 -0.3298
 5787SOL    HW119355   5.061   8.029   4.040 -1.5642  0.9518 -1.2791
 5787SOL    HW219356   4.950   7.935   4.080  0.7484 -1.1683  0.4619
 5788SOL     OW19357   0.633   6.289   4.571 -0.4332  0.1665  0.2028
 5788SOL    HW119358   0.678   6.273   4.487  0.7682  0.5975  0.7355
 5788SOL    HW219359   0.625   6.203   4.610 -0.1449  0.0705  0.0558
 5789SOL     OW19360   2.461   4.391   4.353 -0.6363  0.4564 -0.5261
 5789SOL    HW119361   2.529   4.390   4.420 -1.2676  1.3202  0.1624
 5789SOL    HW219362   2.405   4.317   4.375 -0.7578  0.6487 -0.1821
 5790SOL     OW19363   2.887   6.395   4.561  0.3001  0.6646  0.0010
 5790SOL    HW119364   2.793   6.388   4.545  0.3470 -1.5348  0.4357
 5790SOL    HW219365   2.895   6.399   4.656  0.6296  2.1499 -0.0522
 5791SOL     OW19366   5.981   1.268   3.304 -0.4085 -0.0185 -0.9971
 5791SOL    HW119367   6.010   1.181   3.331 -0.8868 -0.0036 -0.4099
 5791SOL    HW219368   5.904   1.252   3.249 -0.6996  0.0457 -0.6111
 5792SOL     OW19369   2.655   2.617   1.285 -0.0077 -0.0718 -0.2212
 5792SOL    HW119370   2.602   2.696   1.270  1.4999  1.2598  1.0553
 5792SOL    HW219371   2.625   2.585   1.370  0.8024  0.3523  0.2328
 5793SOL     OW19372   6.246   8.532   6.928 -0.6607  0.7784 -0.6148
 5793SOL    HW119373   6.329   8.576   6.943  0.3833 -1.5886  1.2796
 5793SOL    HW219374   6.186   8.569   6.992  0.1329 -0.2594  0.7841
 5794SOL     OW19375   5.741   3.790   1.779 -0.2305 -0.2068 -0.4110
 5794SOL    HW119376   5.677   3.852   1.743  0.2550  0.6502  0.1381
 5794SOL    HW219377   5.698   3.705   1.776 -1.2027  0.2813 -0.5090
 5795SOL     OW19378   4.967   0.773   0.130  0.2523  0.0550  0.0685
 5795SOL    HW119379   4.923   0.776   0.045  0.9803  1.5936 -0.2862
 5795SOL    HW219380   4.896   0.764   0.193 -0.2669 -1.8956 -0.6976
 5796SOL     OW19381   3.442   2.675   5.474  0.4468 -0.0141  0.4735
 5796SOL    HW119382   3.368   2.644   5.526  0.8096  1.1679  1.7161
 5796SOL    HW219383   3.444   2.615   5.399 -2.5280  0.6653 -0.2786
 5797SOL     OW19384   6.912   2.192   0.596  0.3451  0.1315  0.2295
 5797SOL    HW119385   6.898   2.143   0.676 -0.3970  1.0942  0.7189
 5797SOL    HW219386   6.947   2.277   0.625 -0.7195  0.8005 -0.3646
 5798SOL     OW19387   1.189   0.010   6.176  0.3547  0.5589  0.3932
 5798SOL    HW119388   1.163   0.048   6.092 -1.9213 -0.0052  0.7818
 5798SOL    HW219389   1.163   0.075   6.241  1.0064  0.4568  0.7719
 5799SOL     OW19390   2.065   0.713   7.216  0.1357  0.6627  0.5920
 5799SOL    HW119391   1.984   0.662   7.219  0.2748  0.4675  2.8148
 5799SOL    HW219392   2.039   0.800   7.246  0.5881  0.8600  0.4222
 5800SOL     OW19393   5.013   1.176   0.405  0.0288  0.0281 -0.2417
 5800SOL    HW119394   5.084   1.119   0.437  0.4730  1.1658  0.9163
 5800SOL    HW219395   4.945   1.169   0.473  0.0206  0.7330 -0.1745
 5801SOL     OW19396   7.572   5.403   4.683  0.1224  0.4919  0.1570
 5801SOL    HW119397   7.582   5.423   4.776  1.2719  1.0753 -0.0828
 5801SOL    HW219398   7.657   5.370   4.656 -0.3023  0.0047 -0.6274
 5802SOL     OW19399   1.454   5.229   5.643 -0.3602 -0.0995 -0.5861
 5802SOL    HW119400   1.421   5.316   5.618 -0.5125  0.0817  0.2270
 5802SOL    HW219401   1.413   5.210   5.727 -0.8090 -1.2371 -1.0406
 5803SOL     OW19402   7.302   1.188   0.621 -0.7878  0.3295 -0.0152
 5803SOL    HW119403   7.377   1.247   0.623  0.3090 -1.0058  0.0591
 5803SOL    HW219404   7.289   1.162   0.712 -0.7321 -0.1751 -0.1494
 5804SOL     OW19405   1.123   4.751   0.434 -0.2204  0.5350 -0.2767
 5804SOL    HW119406   1.067   4.736   0.510  0.2166  2.7416  0.5749
 5804SOL    HW219407   1.078   4.819   0.383  0.3194  0.3014 -1.0898
 5805SOL     OW19408   8.823   6.161   3.804  0.3618  0.3235  0.2133
 5805SOL    HW119409   8.823   6.173   3.709  0.5420  0.3277  0.2144
 5805SOL    HW219410   8.732   6.140   3.825  0.2036  0.8797  0.1119
 5806SOL     OW19411   6.546   4.917   0.123 -0.4986  0.2019 -0.3920
 5806SOL    HW119412   6.499   4.843   0.082  0.3712 -0.2533 -0.5947
 5806SOL    HW219413   6.638   4.892   0.118  0.0960  2.4447 -2.8757
 5807SOL     OW19414   1.634   3.603   5.097  0.3990 -0.5112 -0.0932
 5807SOL    HW119415   1.641   3.631   5.006  0.5758 -0.4350 -0.0566
 5807SOL    HW219416   1.562   3.656   5.132 -0.0712 -0.9744 -0.3478
 5808SOL     OW19417   1.175   0.783   7.529 -0.3483  0.5102  0.6379
 5808SOL    HW119418   1.171   0.760   7.622  0.4840  1.5926  0.9665
 5808SOL    HW219419   1.102   0.736   7.490 -0.4982 -0.2547  1.7761
 5809SOL     OW19420   1.825   1.143   0.855  0.0562 -0.1759 -0.2183
 5809SOL    HW119421   1.731   1.160   0.854 -0.3523 -2.1247 -0.7586
 5809SOL    HW219422   1.853   1.156   0.765  0.5578  1.5173  0.1658
 5810SOL     OW19423   8.116   5.484   0.087 -0.0673 -0.2550  0.2226
 5810SOL    HW119424   8.056   5.410   0.094  0.2264 -0.3784  1.6553
 5810SOL    HW219425   8.065   5.559   0.117 -0.0153 -0.0734 -0.1431
 5811SOL     OW19426   6.861   6.351   5.229  0.1446  0.6349 -0.0095
 5811SOL    HW119427   6.883   6.434   5.272 -3.5687  1.5032  0.5051
 5811SOL    HW219428   6.828   6.295   5.299  1.0953 -0.7620 -0.6237
 5812SOL     OW19429   8.410   8.717   5.704 -0.0812  0.0340  0.3873
 5812SOL    HW119430   8.319   8.740   5.685 -0.1619  0.0349  0.7795
 5812SOL    HW219431   8.411   8.696   5.797  0.8295  2.5519  1.0350
 5813SOL     OW19432   1.761   8.741   1.069  0.2202  0.1881  0.3246
 5813SOL    HW119433   1.701   8.745   0.994 -0.4317 -1.7465  0.6764
 5813SOL    HW219434   1.712   8.693   1.136  1.0254  1.3345  1.7937
 5814SOL     OW19435   7.729   6.985   4.155  0.1507 -0.3570  0.0669
 5814SOL    HW119436   7.776   6.954   4.233  0.9441  0.8887  0.1094
 5814SOL    HW219437   7.640   6.952   4.166  1.0102 -2.9165 -0.0721
 5815SOL     OW19438   1.516   2.004   6.775  0.2608 -0.4696  0.2009
 5815SOL    HW119439   1.602   2.006   6.733 -0.8028 -0.5932 -2.1370
 5815SOL    HW219440   1.458   2.053   6.716 -1.7802 -2.4557  0.3955
 5816SOL     OW19441   5.289   7.133   0.350  0.5097 -0.2972  0.2655
 5816SOL    HW119442   5.207   7.169   0.315  1.4387  0.9720 -0.7277
 5816SOL    HW219443   5.345   7.210   0.362  1.5104 -1.1256  1.0764
 5817SOL     OW19444   3.169   1.388   7.114  0.3624  0.9868 -0.5747
 5817SOL    HW119445   3.264   1.375   7.112  0.2821  0.4195 -0.8082
 5817SOL    HW219446   3.134   1.320   7.056 -0.2281  0.8215 -0.0356
 5818SOL     OW19447   4.133   8.008   0.781 -0.1631 -0.0041  0.3324
 5818SOL    HW119448   4.085   8.058   0.848  0.2534 -1.5683  1.8901
 5818SOL    HW219449   4.210   8.061   0.763 -0.7230  0.8711  0.4212
 5819SOL     OW19450   3.122   5.602   6.814 -0.2200 -0.6102 -0.0480
 5819SOL    HW119451   3.077   5.685   6.800 -2.6610 -2.0060 -1.0895
 5819SOL    HW219452   3.210   5.627   6.843 -1.2705  2.2894  1.0195
 5820SOL     OW19453   1.588   0.509   1.296 -0.1721 -0.0460 -0.0485
 5820SOL    HW119454   1.501   0.539   1.325  0.3747  0.2695  1.3478
 5820SOL    HW219455   1.600   0.551   1.210 -2.4041 -2.0868 -1.4718
 5821SOL     OW19456   6.524   5.265   5.045 -0.4515  0.4830 -0.5317
 5821SOL    HW119457   6.470   5.188   5.027 -0.5111  0.6230 -0.9803
 5821SOL    HW219458   6.494   5.296   5.130  0.1944 -0.5090  0.0775
 5822SOL     OW19459   5.562   0.949   0.453 -0.2719  0.1482 -0.0207
 5822SOL    HW119460   5.538   0.995   0.533 -2.6924 -0.5016 -0.2924
 5822SOL    HW219461   5.574   0.858   0.480  1.3463  0.3275 -0.0270
 5823SOL     OW19462   5.883   1.450   0.727  0.1270  0.1591  0.1257
 5823SOL    HW119463   5.963   1.503   0.731  0.0838  0.4203 -1.7307
 5823SOL    HW219464   5.888   1.405   0.643 -1.4351 -0.2275  0.2155
 5824SOL     OW19465   2.659   7.118   2.772 -0.4608 -0.0822  0.3886
 5824SOL    HW119466   2.585   7.175   2.753  0.4215  0.8344 -0.4262
 5824SOL    HW219467   2.736   7.168   2.743  0.3345 -1.7041 -0.4260
 5825SOL     OW19468   5.392   2.874   7.035  0.2826 -0.1340  0.1664
 5825SOL    HW119469   5.464   2.938   7.037  1.1566 -1.0852 -0.0983
 5825SOL    HW219470   5.427   2.798   7.082 -1.5115  0.3314  2.4236
 5826SOL     OW19471   7.058   6.910   5.772 -0.5333  0.0711 -0.1534
 5826SOL    HW119472   7.096   6.983   5.722 -1.1599 -0.1511 -0.9754
 5826SOL    HW219473   6.964   6.926   5.769 -0.6200 -0.3286  0.3805
 5827SOL     OW19474   8.818   0.864   5.999  0.7415  0.0600  0.0362
 5827SOL    HW119475   8.795   0.818   5.918 -0.3527  0.3870  0.1414
 5827SOL    HW219476   8.816   0.796   6.066  2.0800 -0.2979 -0.2602
 5828SOL     OW19477   4.829   6.292   2.741  0.4597  0.4988  0.2954
 5828SOL    HW119478   4.867   6.379   2.730  0.8658  0.3940  0.8456
 5828SOL    HW219479   4.884   6.250   2.807  1.0364 -0.6343 -0.8756
 5829SOL     OW19480   1.410   3.339   2.136  0.3926  0.1882 -0.1386
 5829SOL    HW119481   1.383   3.413   2.081  1.0529 -0.8832 -2.0019
 5829SOL    HW219482   1.377   3.361   2.223 -1.5927  1.5270 -1.1365
 5830SOL     OW19483   7.100   5.007   4.868 -0.6976  0.6833 -0.9161
 5830SOL    HW119484   7.187   4.984   4.901 -1.6493  0.0008  1.3092
 5830SOL    HW219485   7.102   5.102   4.856  0.0056  0.8255  0.2643
 5831SOL     OW19486   3.502   1.972   6.396  0.0408 -0.0530 -0.2523
 5831SOL    HW119487   3.446   1.908   6.440  1.7343 -1.2218  0.3348
 5831SOL    HW219488   3.514   1.936   6.308  0.4648 -0.2325 -0.1276
 5832SOL     OW19489   3.220   3.224   2.065  0.4337 -0.4501 -0.6398
 5832SOL    HW119490   3.228   3.249   1.973  2.5005 -0.4961 -0.5057
 5832SOL    HW219491   3.155   3.153   2.065 -2.3683  1.9056 -1.5508
 5833SOL     OW19492   7.488   8.528   5.050 -0.3149  0.3101 -0.4722
 5833SOL    HW119493   7.553   8.583   5.093 -0.7670 -0.0517  0.7135
 5833SOL    HW219494   7.539   8.461   5.004  0.1843  0.8201 -0.6683
 5834SOL     OW19495   0.951   8.740   3.540  0.1522 -0.2442 -0.1201
 5834SOL    HW119496   0.914   8.702   3.460  0.8798  2.1115 -1.7026
 5834SOL    HW219497   1.032   8.692   3.555 -0.0390 -0.7708 -0.7348
 5835SOL     OW19498   5.159   0.872   7.092  0.2978 -0.2061 -0.0181
 5835SOL    HW119499   5.207   0.831   7.020 -0.5355 -0.1462 -0.6148
 5835SOL    HW219500   5.075   0.898   7.054  0.1435  0.5209  0.7807
 5836SOL     OW19501   1.925   1.778   0.526 -0.5775 -0.1149  0.9551
 5836SOL    HW119502   1.960   1.799   0.439  1.1705 -0.6246  1.5032
 5836SOL    HW219503   1.845   1.831   0.532 -0.1530  0.7665 -0.5262
 5837SOL     OW19504   4.486   4.337   5.347  0.3665 -0.0078  0.4444
 5837SOL    HW119505   4.421   4.337   5.418  0.3234 -2.1915  0.4801
 5837SOL    HW219506   4.451   4.274   5.284  1.1458  0.8022 -0.8216
 5838SOL     OW19507   8.511   1.612   7.141 -0.2016 -0.2956  0.0405
 5838SOL    HW119508   8.549   1.626   7.228  0.6012 -1.1267 -0.1579
 5838SOL    HW219509   8.565   1.665   7.082  0.8108 -1.6292 -0.2682
 5839SOL     OW19510   2.989   2.096   1.822  0.0208  0.7696  0.2221
 5839SOL    HW119511   2.975   2.114   1.729 -0.4547  1.6530  0.4537
 5839SOL    HW219512   2.903   2.112   1.862  0.4483  1.3197  0.9466
 5840SOL     OW19513   1.633   0.830   8.619  0.2446  0.6098  0.6220
 5840SOL    HW119514   1.543   0.829   8.586 -0.7148  0.3390  3.0521
 5840SOL    HW219515   1.675   0.902   8.572 -1.1655  0.6250 -0.6898
 5841SOL     OW19516   2.578   5.561   4.359 -0.6025 -0.6024  0.0062
 5841SOL    HW119517   2.490   5.550   4.323 -0.4119 -1.0695 -0.3284
 5841SOL    HW219518   2.565   5.555   4.454 -1.1549  0.9775  0.0681
 5842SOL     OW19519   8.029   4.295   0.255 -0.1252 -0.4829  0.5977
 5842SOL    HW119520   7.974   4.225   0.290  0.8205 -1.2540  0.5954
 5842SOL    HW219521   8.018   4.289   0.160  1.9512 -2.4172  0.3862
 5843SOL     OW19522   5.903   0.617   0.473  0.3920  0.2383  0.4703
 5843SOL    HW119523   5.976   0.558   0.452  0.4198  0.2832  0.4428
 5843SOL    HW219524   5.856   0.628   0.391 -0.8464 -1.4302  0.9061
 5844SOL     OW19525   2.698   5.918   7.797  0.8489  0.4512 -0.1559
 5844SOL    HW119526   2.755   5.979   7.750  1.2434  1.6473  1.7373
 5844SOL    HW219527   2.657   5.972   7.865 -0.7875 -0.8819 -0.0227
 5845SOL     OW19528   0.601   6.886   3.562 -0.8096 -0.1032  0.7084
 5845SOL    HW119529   0.582   6.883   3.469  0.7512  0.4028  0.3438
 5845SOL    HW219530   0.658   6.812   3.578  1.0993  1.2919  0.6874
 5846SOL     OW19531   5.112   8.559   4.574 -0.6557 -0.2765  0.0779
 5846SOL    HW119532   5.097   8.470   4.542  0.7469 -0.8613  0.9724
 5846SOL    HW219533   5.191   8.588   4.529 -1.4316  0.7548 -0.6498
 5847SOL     OW19534   7.936   1.641   5.485  0.9168 -0.3162 -0.2789
 5847SOL    HW119535   7.896   1.711   5.536  0.6683  0.3994 -1.4229
 5847SOL    HW219536   7.866   1.577   5.473  1.1568 -0.8038  0.8057
 5848SOL     OW19537   2.773   5.439   3.496 -0.3945  0.1164 -0.7000
 5848SOL    HW119538   2.774   5.514   3.436 -0.3015 -0.9978 -2.1452
 5848SOL    HW219539   2.865   5.415   3.507 -0.5002 -0.6319 -1.3681
 5849SOL     OW19540   3.891   4.524   4.634 -0.0560  0.1588  0.0519
 5849SOL    HW119541   3.867   4.615   4.652 -1.4194 -0.3438  0.9443
 5849SOL    HW219542   3.959   4.504   4.699  1.0471  0.8272 -0.8440
 5850SOL     OW19543   7.313   6.703   0.271 -0.1429  0.0253 -0.3587
 5850SOL    HW119544   7.299   6.646   0.196 -0.9749  0.4371 -0.5217
 5850SOL    HW219545   7.302   6.791   0.237 -1.4901  0.1870  0.4258
 5851SOL     OW19546   0.344   7.826   6.253  0.0874 -0.5790 -0.3239
 5851SOL    HW119547   0.318   7.863   6.337  2.6138  1.4714 -0.3364
 5851SOL    HW219548   0.301   7.882   6.188 -0.3140 -0.9652 -0.3941
 5852SOL     OW19549   6.800   8.717   0.866 -0.0853  0.0036 -0.5532
 5852SOL    HW119550   6.763   8.652   0.806  0.1761 -0.0222 -0.6876
 5852SOL    HW219551   6.894   8.697   0.868  0.0554  0.5897 -0.8718
 5853SOL     OW19552   4.286   8.844   2.694 -0.2158 -0.0091 -0.7506
 5853SOL    HW119553   4.368   8.888   2.717 -0.0635 -0.2621 -0.8109
 5853SOL    HW219554   4.309   8.752   2.686 -0.1565  0.1300 -2.4566
 5854SOL     OW19555   1.706   5.224   6.587 -0.4111 -0.1531 -0.3622
 5854SOL    HW119556   1.777   5.194   6.645 -0.8101 -0.5799 -0.0837
 5854SOL    HW219557   1.741   5.303   6.546  0.0117 -0.0279  0.2112
 5855SOL     OW19558   4.717   3.498   4.331 -0.3737 -0.1296  0.0449
 5855SOL    HW119559   4.766   3.551   4.268 -1.2806 -0.7636 -1.2471
 5855SOL    HW219560   4.656   3.447   4.277 -0.0884 -1.9045  1.3041
 5856SOL     OW19561   6.337   5.161   3.446  0.0467  0.0292  0.6784
 5856SOL    HW119562   6.370   5.134   3.532 -0.1298  1.5691  1.2647
 5856SOL    HW219563   6.242   5.162   3.456  0.0599  1.6914  0.9863
 5857SOL     OW19564   5.079   8.747   2.261  0.3139  0.3933  0.6915
 5857SOL    HW119565   5.093   8.678   2.196  1.5401  0.5588  0.7544
 5857SOL    HW219566   4.991   8.731   2.294 -0.3871  0.3574 -1.0599
 5858SOL     OW19567   4.027   6.597   0.210  0.8524  0.3434  0.8283
 5858SOL    HW119568   3.997   6.687   0.219  1.1637  0.3117  2.5218
 5858SOL    HW219569   3.972   6.560   0.140 -0.1644  1.4742  0.9968
 5859SOL     OW19570   5.153   8.511   8.390 -0.4362 -0.4118 -0.0888
 5859SOL    HW119571   5.243   8.497   8.360  0.6777  0.3800  2.6013
 5859SOL    HW219572   5.151   8.602   8.418 -1.4436 -0.9603  1.7888
 5860SOL     OW19573   6.426   1.852   4.204  0.4289  0.2052  0.4749
 5860SOL    HW119574   6.492   1.804   4.154 -0.7881 -0.4478 -0.5636
 5860SOL    HW219575   6.401   1.925   4.148  0.8956  0.9830  1.2468
 5861SOL     OW19576   1.087   8.360   5.164  0.1694 -0.2435 -0.3382
 5861SOL    HW119577   1.111   8.319   5.081  0.4401  0.4756 -0.6164
 5861SOL    HW219578   1.167   8.357   5.216 -0.3914 -2.1190  0.5127
 5862SOL     OW19579   2.378   0.797   2.208  0.1771 -0.0992  0.3742
 5862SOL    HW119580   2.421   0.723   2.165  1.8976  0.5571  0.8842
 5862SOL    HW219581   2.428   0.874   2.179 -2.2678  1.0471 -1.0464
 5863SOL     OW19582   3.650   1.592   7.351  0.1850 -0.3663 -0.8620
 5863SOL    HW119583   3.589   1.640   7.295  0.0841 -0.3202 -0.7125
 5863SOL    HW219584   3.695   1.532   7.292  0.3584 -0.0431 -1.0654
 5864SOL     OW19585   2.551   5.741   0.716  0.6907 -0.4182 -0.2542
 5864SOL    HW119586   2.589   5.654   0.705  2.2881 -0.0823  1.9026
 5864SOL    HW219587   2.598   5.796   0.653 -0.9006 -1.2159 -2.2072
 5865SOL     OW19588   3.398   7.708   0.472 -0.2949  0.2205  0.1522
 5865SOL    HW119589   3.406   7.701   0.376  1.5641 -0.5115  0.3242
 5865SOL    HW219590   3.487   7.695   0.504 -0.8142  0.9465  1.9766
 5866SOL     OW19591   5.146   6.774   7.122 -0.2411 -0.2959 -0.3586
 5866SOL    HW119592   5.126   6.723   7.043  0.8955 -1.0397 -0.1970
 5866SOL    HW219593   5.237   6.801   7.110 -0.5616  1.0060 -0.0414
 5867SOL     OW19594   2.280   7.814   7.138 -0.4177 -0.0228 -0.4486
 5867SOL    HW119595   2.348   7.758   7.100 -0.0510 -0.1331  0.3449
 5867SOL    HW219596   2.325   7.862   7.208 -0.2801  2.5859 -2.1735
 5868SOL     OW19597   5.790   7.164   2.801  0.1893  0.2590  0.2328
 5868SOL    HW119598   5.791   7.075   2.837  1.3296  0.1002 -0.1510
 5868SOL    HW219599   5.836   7.217   2.867  2.0951  0.0069 -0.8324
 5869SOL     OW19600   5.058   4.468   7.660 -0.0386 -0.5726 -0.3354
 5869SOL    HW119601   5.031   4.524   7.733  0.7307 -0.9019  0.2189
 5869SOL    HW219602   5.146   4.438   7.684 -0.5413 -2.2586 -0.4639
 5870SOL     OW19603   3.112   8.632   1.597 -0.1067  0.5557  0.0464
 5870SOL    HW119604   3.186   8.614   1.655  0.6010 -0.4745 -1.1209
 5870SOL    HW219605   3.099   8.726   1.603 -0.2798  0.4588  2.1066
 5871SOL     OW19606   8.871   0.507   4.036 -0.2504  0.1181  0.2316
 5871SOL    HW119607   8.959   0.537   4.056 -0.0484  0.9562 -1.7141
 5871SOL    HW219608   8.814   0.564   4.087  0.2416  1.9892 -1.2100
 5872SOL     OW19609   3.930   4.212   1.728  0.6408  0.2482  0.2631
 5872SOL    HW119610   3.872   4.264   1.784 -1.1691 -1.1815 -0.1692
 5872SOL    HW219611   3.933   4.126   1.770 -1.6613 -1.2148 -2.2474
 5873SOL     OW19612   2.166   4.698   0.281 -0.2617  0.2534 -0.1232
 5873SOL    HW119613   2.102   4.764   0.309 -0.5879  0.0328 -0.3431
 5873SOL    HW219614   2.115   4.636   0.228  0.1369  0.0782 -0.3025
 5874SOL     OW19615   4.414   8.529   5.855  0.3651 -0.2173  0.1014
 5874SOL    HW119616   4.388   8.438   5.864  0.1852 -0.1972 -0.2237
 5874SOL    HW219617   4.472   8.545   5.930  1.2519 -0.8966 -0.4165
 5875SOL     OW19618   6.986   1.231   8.747  0.0864  0.0981  0.2203
 5875SOL    HW119619   6.998   1.136   8.743 -0.2698  0.0843 -1.9144
 5875SOL    HW219620   7.069   1.265   8.779  0.9049 -0.8243 -0.8635
 5876SOL     OW19621   2.841   7.529   2.496 -0.1279  0.6258 -0.2215
 5876SOL    HW119622   2.868   7.609   2.541  0.1847  0.5172 -0.2178
 5876SOL    HW219623   2.834   7.464   2.565 -0.6742  0.7206 -0.1808
 5877SOL     OW19624   6.541   4.706   2.963  0.4994 -0.0335 -0.3609
 5877SOL    HW119625   6.536   4.753   2.880  1.7455  2.0121  0.6251
 5877SOL    HW219626   6.450   4.694   2.989  0.0737 -1.2803 -2.2778
 5878SOL     OW19627   4.554   8.393   7.928  0.2199  0.4457  0.4618
 5878SOL    HW119628   4.528   8.439   8.009  2.9934  2.4372  0.3765
 5878SOL    HW219629   4.548   8.460   7.860  1.5417 -0.1199 -0.2442
 5879SOL     OW19630   8.254   8.280   3.111 -0.0207 -0.3595 -0.2678
 5879SOL    HW119631   8.337   8.235   3.127 -0.3592 -0.5542  1.0435
 5879SOL    HW219632   8.192   8.241   3.173 -0.5731  1.2294  0.2428
 5880SOL     OW19633   3.844   7.238   6.426  0.1640  0.3803 -0.1782
 5880SOL    HW119634   3.844   7.330   6.401 -0.7896  0.1956 -0.9367
 5880SOL    HW219635   3.823   7.191   6.345  1.0952 -0.5448  0.0904
 5881SOL     OW19636   4.732   4.695   6.141  0.3949  0.0120  0.3179
 5881SOL    HW119637   4.730   4.789   6.122  2.5452 -0.1363 -1.0410
 5881SOL    HW219638   4.771   4.690   6.228  0.3232  0.3770  0.3743
 5882SOL     OW19639   4.799   1.487   5.626  0.2382  0.1829 -0.1073
 5882SOL    HW119640   4.829   1.472   5.536  2.3714  2.2830  0.1323
 5882SOL    HW219641   4.830   1.411   5.675  0.0123 -0.4624 -0.9396
 5883SOL     OW19642   8.102   0.260   6.425 -0.3900  0.1232  0.0705
 5883SOL    HW119643   8.060   0.175   6.416  0.5944 -0.6039  1.7190
 5883SOL    HW219644   8.035   0.324   6.402 -0.9388 -1.0873 -1.8969
 5884SOL     OW19645   3.241   8.339   8.459 -0.1622 -0.1043  0.3409
 5884SOL    HW119646   3.317   8.389   8.430  0.0547 -0.0615  0.9652
 5884SOL    HW219647   3.256   8.251   8.424  0.8713 -0.4569  1.5719
 5885SOL     OW19648   3.677   8.690   5.381 -0.0545 -0.8072  0.3567
 5885SOL    HW119649   3.702   8.722   5.468  0.4795 -1.0322  0.2891
 5885SOL    HW219650   3.614   8.755   5.349  0.3701 -0.2860  0.5728
 5886SOL     OW19651   1.978   4.022   1.398  0.0833  0.2289 -0.4502
 5886SOL    HW119652   2.040   4.090   1.374 -0.9368  1.2600 -0.2869
 5886SOL    HW219653   1.940   4.053   1.480  0.4443 -1.1337  0.2548
 5887SOL     OW19654   8.424   8.087   0.485 -0.5277  0.1787  0.1852
 5887SOL    HW119655   8.354   8.052   0.430  0.2238 -1.0355 -0.0351
 5887SOL    HW219656   8.500   8.033   0.465  0.2048  0.7885  1.1990
 5888SOL     OW19657   6.052   1.292   3.875 -0.2769  0.4639  0.1488
 5888SOL    HW119658   6.103   1.249   3.944 -1.3149 -0.8906  0.1197
 5888SOL    HW219659   6.057   1.232   3.800 -1.9648  0.2156  0.1885
 5889SOL     OW19660   7.866   3.935   8.130  0.3521 -0.1156  0.2137
 5889SOL    HW119661   7.791   3.970   8.178  0.1019 -0.6000  0.1759
 5889SOL    HW219662   7.857   3.973   8.042 -1.0775 -1.8384 -0.4549
 5890SOL     OW19663   5.187   4.834   4.352 -0.0525 -0.5189  0.6142
 5890SOL    HW119664   5.209   4.771   4.283 -1.9425  0.6374 -1.1722
 5890SOL    HW219665   5.158   4.780   4.425 -1.3255 -1.8063 -0.7594
 5891SOL     OW19666   7.057   0.808   5.402 -0.4294 -0.2337 -0.4186
 5891SOL    HW119667   7.055   0.889   5.351  0.2590 -0.4784 -0.8582
 5891SOL    HW219668   6.967   0.776   5.401 -1.0268  1.2577  0.9941
 5892SOL     OW19669   8.081   2.287   3.747  0.2072  0.0412  0.5595
 5892SOL    HW119670   7.989   2.313   3.745 -0.1589 -1.2259 -0.3413
 5892SOL    HW219671   8.078   2.191   3.749  1.5076 -0.0274 -0.1646
 5893SOL     OW19672   6.687   4.156   4.537  0.0917 -0.6504  0.3202
 5893SOL    HW119673   6.609   4.204   4.564 -0.2035 -1.5889  1.2042
 5893SOL    HW219674   6.698   4.177   4.444 -2.7071 -2.4891 -0.5392
 5894SOL     OW19675   0.044   8.197   5.571  0.2032 -0.4468  0.0896
 5894SOL    HW119676   0.008   8.246   5.497  0.2682 -1.4404 -0.6365
 5894SOL    HW219677   0.139   8.203   5.559  0.2181 -0.3946  0.2380
 5895SOL     OW19678   3.046   7.479   7.285  0.4126 -0.0491  0.0896
 5895SOL    HW119679   2.961   7.498   7.324 -0.7232  0.9483 -2.5860
 5895SOL    HW219680   3.028   7.409   7.222  1.6412 -0.0186 -0.3169
 5896SOL     OW19681   5.256   3.796   4.853  0.2672  0.1853  0.3522
 5896SOL    HW119682   5.168   3.832   4.857 -0.1864 -0.7022 -1.0720
 5896SOL    HW219683   5.311   3.867   4.820 -0.6186 -0.3221 -2.4784
 5897SOL     OW19684   5.370   8.672   1.842  0.0612  0.2462  0.4873
 5897SOL    HW119685   5.382   8.605   1.909 -2.2427 -1.6975 -0.8873
 5897SOL    HW219686   5.297   8.725   1.874  0.2286  0.5380  0.3926
 5898SOL     OW19687   6.003   2.178   3.417  0.1167  0.0453 -0.0309
 5898SOL    HW119688   5.923   2.207   3.461  0.4563  0.0264  0.6160
 5898SOL    HW219689   6.033   2.103   3.469  1.7011  1.3523  1.0391
 5899SOL     OW19690   7.410   3.292   6.472 -0.2227 -0.3713 -0.4039
 5899SOL    HW119691   7.377   3.225   6.532  1.1661 -0.6980  0.0305
 5899SOL    HW219692   7.338   3.353   6.463 -0.2185  0.1551  2.2978
 5900SOL     OW19693   6.122   1.167   0.357  0.5615  0.0120 -0.0637
 5900SOL    HW119694   6.052   1.109   0.389  1.6693 -0.9229  0.7591
 5900SOL    HW219695   6.164   1.199   0.437  0.1811  1.7283 -0.5221
 5901SOL     OW19696   6.466   8.239   8.676 -0.3141 -0.0903 -0.1041
 5901SOL    HW119697   6.405   8.236   8.750  0.1068  1.1549  0.3290
 5901SOL    HW219698   6.426   8.185   8.609 -2.5010  1.5809 -0.2518
 5902SOL     OW19699   4.265   7.630   2.561 -0.4491 -0.8185  0.2293
 5902SOL    HW119700   4.347   7.672   2.588 -1.5013  1.5379  0.0399
 5902SOL    HW219701   4.265   7.636   2.466 -1.9900  1.7588  0.2997
 5903SOL     OW19702   2.011   0.758   1.298  0.3062 -0.2478 -0.4205
 5903SOL    HW119703   2.008   0.802   1.383  1.7794  0.3167 -0.6344
 5903SOL    HW219704   1.954   0.682   1.309 -1.2131  0.9535  0.3852
 5904SOL     OW19705   6.053   2.187   6.316  0.1323 -0.3467 -0.4788
 5904SOL    HW119706   6.132   2.220   6.272 -0.6603  1.5005 -0.6056
 5904SOL    HW219707   5.999   2.265   6.330 -2.5648 -1.7741 -2.1465
 5905SOL     OW19708   2.010   1.493   6.138 -0.1266 -0.2033 -0.4857
 5905SOL    HW119709   1.922   1.501   6.175 -0.3019  0.1010 -0.9544
 5905SOL    HW219710   1.996   1.452   6.053  0.3058 -1.2095 -0.0823
 5906SOL     OW19711   3.409   1.317   0.069 -0.1970 -0.2016  0.0239
 5906SOL    HW119712   3.463   1.387   0.033  0.5350 -1.2486 -0.9645
 5906SOL    HW219713   3.408   1.249   0.001  0.2359 -1.7300  1.4695
 5907SOL     OW19714   0.558   3.809   4.288  0.1712 -0.4800  0.1547
 5907SOL    HW119715   0.483   3.810   4.230  1.3180  0.7863 -1.4019
 5907SOL    HW219716   0.622   3.752   4.245  1.6113  1.6409 -0.7414
 5908SOL     OW19717   1.117   7.875   4.997 -0.5489 -0.1816 -0.0844
 5908SOL    HW119718   1.047   7.830   4.950 -1.0843 -0.3892  0.8787
 5908SOL    HW219719   1.082   7.888   5.085  0.5366 -0.0597  0.3421
 5909SOL     OW19720   7.473   2.640   7.938  0.1575  0.1383  0.0286
 5909SOL    HW119721   7.529   2.718   7.931 -0.2010  0.4681  0.7319
 5909SOL    HW219722   7.535   2.568   7.948  0.4786  0.4425  0.3023
 5910SOL     OW19723   6.968   5.502   2.486 -0.4535 -0.2752  0.1489
 5910SOL    HW119724   6.940   5.440   2.554  2.0741 -1.0197  0.6232
 5910SOL    HW219725   7.046   5.544   2.523  0.4988 -0.0889 -1.9379
 5911SOL     OW19726   7.541   6.847   0.448  0.0833 -0.5016 -0.7594
 5911SOL    HW119727   7.487   6.827   0.524  0.7459  1.2248  0.2195
 5911SOL    HW219728   7.499   6.800   0.376 -1.3412 -1.0930  0.4050
 5912SOL     OW19729   3.118   1.926   3.567 -0.3631  0.0271 -0.0632
 5912SOL    HW119730   3.170   1.869   3.622 -0.0912  0.5891  0.2729
 5912SOL    HW219731   3.077   1.868   3.504  0.2814 -0.4789 -0.0246
 5913SOL     OW19732   6.860   2.884   5.743  0.1023 -0.0260 -0.2955
 5913SOL    HW119733   6.885   2.957   5.686 -1.4628  0.7965  0.0056
 5913SOL    HW219734   6.765   2.892   5.751 -0.0607 -1.9553 -0.0195
 5914SOL     OW19735   1.312   1.286   0.027 -0.0970 -0.3449 -0.0149
 5914SOL    HW119736   1.302   1.364   0.082 -0.8548  0.0764 -0.7256
 5914SOL    HW219737   1.395   1.248   0.054 -0.1667  0.1944  0.9924
 5915SOL     OW19738   5.881   1.336   0.464 -0.1953 -0.0977 -0.2293
 5915SOL    HW119739   5.816   1.267   0.477  0.3659 -0.2987  1.9943
 5915SOL    HW219740   5.958   1.291   0.429  0.9600 -1.1752  3.2617
 5916SOL     OW19741   1.638   7.832   8.647  0.6102  0.0903  0.4097
 5916SOL    HW119742   1.629   7.799   8.558  1.3812  0.1362  0.3102
 5916SOL    HW219743   1.631   7.928   8.638 -0.4117  0.0449  0.5477
 5917SOL     OW19744   1.608   1.549   4.062 -0.8682  0.2161  0.3192
 5917SOL    HW119745   1.624   1.643   4.062  1.0265 -0.0746  0.4775
 5917SOL    HW219746   1.566   1.531   3.978 -0.2522  1.0460 -0.1739
 5918SOL     OW19747   8.708   1.706   6.962 -0.0933  0.1270 -0.4443
 5918SOL    HW119748   8.804   1.710   6.956  0.0454  0.4866  1.3268
 5918SOL    HW219749   8.681   1.656   6.885  1.6037 -0.8086 -0.4863
 5919SOL     OW19750   3.651   2.466   8.217 -0.1446 -0.1272  0.0007
 5919SOL    HW119751   3.707   2.497   8.289  0.1707 -0.2596 -0.1837
 5919SOL    HW219752   3.606   2.545   8.187  0.2699  0.0643 -0.1301
 5920SOL     OW19753   6.201   5.875   1.140 -0.3341 -0.1428 -0.3739
 5920SOL    HW119754   6.186   5.804   1.201 -2.6460  0.1894 -0.4740
 5920SOL    HW219755   6.293   5.866   1.114 -0.6773 -3.3954 -0.8059
 5921SOL     OW19756   6.874   2.156   4.432 -0.1865 -0.3031 -0.2898
 5921SOL    HW119757   6.828   2.200   4.503 -1.3952 -1.9701  0.0221
 5921SOL    HW219758   6.846   2.064   4.438  2.6731 -1.2863 -0.5208
 5922SOL     OW19759   2.291   2.001   4.344 -0.7217 -0.1680 -0.3484
 5922SOL    HW119760   2.343   1.951   4.407 -1.3702  0.4933  0.7531
 5922SOL    HW219761   2.322   1.972   4.258 -0.0958 -1.3890  0.2674
 5923SOL     OW19762   2.062   0.693   4.016 -0.0903  0.1611  0.4610
 5923SOL    HW119763   2.012   0.622   4.058  1.0708 -1.2451 -0.4471
 5923SOL    HW219764   1.996   0.739   3.963 -0.7822 -0.5527  0.6690
 5924SOL     OW19765   4.202   0.086   0.182 -0.1755  0.5616 -0.1432
 5924SOL    HW119766   4.116   0.079   0.224 -0.1449  1.6007  0.1263
 5924SOL    HW219767   4.212   0.180   0.164  2.0441  0.8756  2.2832
 5925SOL     OW19768   3.761   4.350   0.341  0.0793  0.0225 -0.4256
 5925SOL    HW119769   3.764   4.440   0.375 -0.1900  0.7535 -2.2023
 5925SOL    HW219770   3.670   4.340   0.312  0.5701 -0.1103 -1.9919
 5926SOL     OW19771   4.168   4.751   5.167 -0.0574 -0.3576 -0.5936
 5926SOL    HW119772   4.179   4.664   5.205 -0.7565 -0.0165  0.4540
 5926SOL    HW219773   4.253   4.773   5.131  0.2333 -1.3149 -0.5120
 5927SOL     OW19774   8.123   0.249   8.221 -0.2494  0.0875  0.2869
 5927SOL    HW119775   8.092   0.329   8.262 -0.5546 -0.4306  1.0772
 5927SOL    HW219776   8.044   0.199   8.202 -0.0588 -0.0445 -0.1796
 5928SOL     OW19777   8.835   8.148   3.769  0.1954 -0.6468 -0.0640
 5928SOL    HW119778   8.752   8.115   3.736 -0.3415 -0.4037  1.0011
 5928SOL    HW219779   8.812   8.230   3.813  0.5942 -1.7064  2.2763
 5929SOL     OW19780   6.341   3.355   5.819  0.1100 -0.1147  0.3575
 5929SOL    HW119781   6.355   3.448   5.836  0.9718 -0.3913  1.3129
 5929SOL    HW219782   6.355   3.345   5.725  0.6326  0.6207  0.3495
 5930SOL     OW19783   2.034   7.347   0.245  0.6288 -0.3104  0.1645
 5930SOL    HW119784   2.101   7.351   0.177 -0.0376 -1.7864 -0.6152
 5930SOL    HW219785   1.952   7.369   0.200  0.4782  0.9577  0.9928
 5931SOL     OW19786   5.353   8.052   6.099 -1.0458  0.0815 -1.0170
 5931SOL    HW119787   5.320   8.031   6.186  5.2366 -0.2907  1.8121
 5931SOL    HW219788   5.373   8.146   6.103  2.7492 -0.5856 -0.2852
 5932SOL     OW19789   7.488   1.950   3.729 -0.0125 -0.6520 -0.8837
 5932SOL    HW119790   7.428   2.011   3.687 -0.0303 -0.3119 -0.3641
 5932SOL    HW219791   7.494   1.877   3.667 -0.0200 -0.1483 -1.4929
 5933SOL     OW19792   4.072   4.392   4.825 -0.3691 -0.6352  0.1256
 5933SOL    HW119793   4.130   4.338   4.878  2.5821  0.7970 -1.3838
 5933SOL    HW219794   4.061   4.472   4.876 -0.3124 -0.5877  0.0644
 5934SOL     OW19795   3.526   7.700   8.407  0.4218 -0.6100  0.0971
 5934SOL    HW119796   3.480   7.715   8.325  0.5090  1.3824  0.3471
 5934SOL    HW219797   3.510   7.608   8.428  1.2305 -1.4424 -2.6110
 5935SOL     OW19798   6.388   1.524   4.097  0.5221  0.2626 -0.0397
 5935SOL    HW119799   6.327   1.558   4.031  0.4253  0.7198  0.2808
 5935SOL    HW219800   6.448   1.597   4.114 -0.5783  0.8230  1.7278
 5936SOL     OW19801   4.122   3.738   7.149  0.2196  0.2061  0.1738
 5936SOL    HW119802   4.106   3.827   7.182  0.2986  0.2501  0.0943
 5936SOL    HW219803   4.064   3.729   7.074 -0.7913 -0.2952  0.9927
 5937SOL     OW19804   2.899   0.810   5.421  0.2013  0.2402 -0.1272
 5937SOL    HW119805   2.911   0.904   5.438 -0.5126  0.4144 -0.5328
 5937SOL    HW219806   2.929   0.798   5.331 -1.8257  0.5468 -0.9033
 5938SOL     OW19807   6.607   2.000   4.414 -0.7006  0.1578  0.4794
 5938SOL    HW119808   6.538   2.043   4.465 -1.2154 -0.8308  0.6393
 5938SOL    HW219809   6.568   1.986   4.328 -0.6391 -0.2694  0.5224
 5939SOL     OW19810   8.776   5.671   7.922  0.2457  0.1710 -0.2686
 5939SOL    HW119811   8.832   5.747   7.907  0.2771  0.6550  2.0754
 5939SOL    HW219812   8.832   5.596   7.900  2.2683  0.5821  2.8978
 5940SOL     OW19813   2.529   1.711   6.797  0.4033  0.1301  0.1054
 5940SOL    HW119814   2.512   1.754   6.881 -0.0625 -1.8839  1.1208
 5940SOL    HW219815   2.442   1.700   6.758  0.3100 -1.3778  0.6786
 5941SOL     OW19816   1.589   8.746   6.833 -0.3069 -0.1458  0.1895
 5941SOL    HW119817   1.585   8.822   6.891 -2.1573 -0.4024  0.4410
 5941SOL    HW219818   1.531   8.682   6.873  0.2056 -1.2145 -0.7252
 5942SOL     OW19819   4.375   5.176   0.843 -0.3494 -0.0241  0.4267
 5942SOL    HW119820   4.449   5.213   0.794  0.3672 -1.0483  0.7093
 5942SOL    HW219821   4.363   5.236   0.916  0.5811 -0.1316  0.6911
 5943SOL     OW19822   4.825   7.416   5.041  0.2567  0.2368  0.0461
 5943SOL    HW119823   4.885   7.374   4.980  0.8230 -0.9868  1.3832
 5943SOL    HW219824   4.742   7.370   5.030  0.6243 -0.6506  0.8526
 5944SOL     OW19825   0.575   1.902   1.898 -0.5021  0.2099  0.2373
 5944SOL    HW119826   0.510   1.918   1.829  1.1084 -1.0116 -1.6986
 5944SOL    HW219827   0.525   1.870   1.972 -2.2453  0.7741 -0.6403
 5945SOL     OW19828   1.911   8.792   3.188  0.7041 -0.0044 -0.1838
 5945SOL    HW119829   1.945   8.759   3.105  1.1842  2.0477 -0.8592
 5945SOL    HW219830   1.975   8.764   3.253  0.8530 -0.7629 -0.6516
 5946SOL     OW19831   7.488   5.395   1.330  0.1591  0.3762  0.0173
 5946SOL    HW119832   7.453   5.321   1.379 -0.2173  1.1129  0.8896
 5946SOL    HW219833   7.455   5.382   1.241  0.3309 -0.6391  0.0849
 5947SOL     OW19834   0.828   5.754   7.069  0.1524  0.0432  0.1391
 5947SOL    HW119835   0.897   5.818   7.086 -0.8409  1.0399  0.5591
 5947SOL    HW219836   0.782   5.788   6.992  0.9911 -1.3781 -1.0360
 5948SOL     OW19837   3.774   1.160   6.353  0.5099  0.4959  0.0197
 5948SOL    HW119838   3.811   1.165   6.265 -1.9655 -1.2339 -1.2641
 5948SOL    HW219839   3.791   1.070   6.381  1.2306  1.0116  1.3512
 5949SOL     OW19840   6.600   0.869   1.061 -0.1200 -1.0156 -0.1849
 5949SOL    HW119841   6.660   0.941   1.042 -1.9950  0.8728  0.6132
 5949SOL    HW219842   6.545   0.863   0.983  0.8517 -2.5268 -0.7887
 5950SOL     OW19843   8.071   0.716   2.992 -0.5578  0.3398  0.2362
 5950SOL    HW119844   7.999   0.668   3.032 -0.4957 -1.9533 -2.1523
 5950SOL    HW219845   8.067   0.803   3.032 -2.5800 -0.7013  2.5375
 5951SOL     OW19846   3.370   6.623   7.686 -0.1975 -0.1951 -0.4497
 5951SOL    HW119847   3.353   6.591   7.775 -0.1424  0.8509 -0.0529
 5951SOL    HW219848   3.284   6.645   7.652 -0.2571 -0.9224 -0.8019
 5952SOL     OW19849   7.722   8.501   1.297  0.2719 -0.4251  0.2876
 5952SOL    HW119850   7.736   8.410   1.323  0.0198  0.1156  2.4331
 5952SOL    HW219851   7.796   8.521   1.239  0.7964 -1.7153  0.4788
 5953SOL     OW19852   5.313   6.454   6.360  0.1816 -0.0248 -0.4000
 5953SOL    HW119853   5.259   6.375   6.360 -0.1640  0.1944 -1.2745
 5953SOL    HW219854   5.274   6.510   6.427  0.6344 -0.7237  0.4625
 5954SOL     OW19855   7.021   1.942   6.867  0.1026  0.2278  0.3097
 5954SOL    HW119856   7.109   1.916   6.893  0.8078  3.1404  1.2140
 5954SOL    HW219857   7.033   1.987   6.783 -0.6026  0.1630  0.1684
 5955SOL     OW19858   4.058   1.717   7.014  0.2514 -0.4189  0.1250
 5955SOL    HW119859   4.134   1.666   7.041 -0.2377 -0.2385  1.9169
 5955SOL    HW219860   4.049   1.785   7.080 -1.0401  0.0067 -0.4532
 5956SOL     OW19861   7.527   0.232   0.447 -0.1162  0.3635 -0.5894
 5956SOL    HW119862   7.475   0.159   0.481  0.7507  0.2505  0.5779
 5956SOL    HW219863   7.598   0.190   0.399 -0.0488  0.4529 -0.5690
 5957SOL     OW19864   3.230   6.574   7.270 -0.0646 -0.4770 -0.0196
 5957SOL    HW119865   3.237   6.484   7.299 -2.7154 -0.2253  1.7302
 5957SOL    HW219866   3.270   6.574   7.183  2.8707 -2.5673  1.1640
 5958SOL     OW19867   6.365   6.784   6.200  0.3402 -0.6219 -0.2210
 5958SOL    HW119868   6.340   6.691   6.203  1.7626 -1.0118  0.1672
 5958SOL    HW219869   6.457   6.783   6.176 -0.1496  0.8096 -2.5126
 5959SOL     OW19870   3.460   1.292   7.114  0.0782 -0.4442  0.0196
 5959SOL    HW119871   3.467   1.380   7.077 -0.8434  0.0853  1.0267
 5959SOL    HW219872   3.467   1.305   7.209 -1.1670 -1.3070  0.2595
 5960SOL     OW19873   2.426   4.882   5.654  0.4544  0.2071  0.0473
 5960SOL    HW119874   2.404   4.974   5.661 -2.0273 -0.3005 -0.1397
 5960SOL    HW219875   2.516   4.876   5.688 -0.5871  2.1452  3.7105
 5961SOL     OW19876   4.504   2.805   6.153  0.1576  0.2091  0.6549
 5961SOL    HW119877   4.518   2.873   6.087 -1.2405  0.5094  0.6481
 5961SOL    HW219878   4.524   2.723   6.107  0.5495  0.5074  0.2756
 5962SOL     OW19879   0.615   0.715   2.086 -0.2620 -0.0235 -0.2138
 5962SOL    HW119880   0.633   0.651   2.016  1.1652  1.0035 -0.8529
 5962SOL    HW219881   0.652   0.675   2.164  0.7441  0.0485 -0.6349
 5963SOL     OW19882   4.590   7.504   7.813  0.2743 -0.3357 -0.4552
 5963SOL    HW119883   4.654   7.512   7.742  0.9723  1.6940  0.3309
 5963SOL    HW219884   4.517   7.559   7.786  0.3270  0.0411  0.1432
 5964SOL     OW19885   4.197   2.781   6.624  0.1594  0.4954  0.3021
 5964SOL    HW119886   4.117   2.733   6.603  0.3663  0.7597 -1.2185
 5964SOL    HW219887   4.214   2.761   6.716 -0.0338 -1.9864 -0.1214
 5965SOL     OW19888   0.775   0.633   0.577  0.2246 -0.3464 -0.8297
 5965SOL    HW119889   0.760   0.727   0.562 -1.1582 -0.3215  0.5375
 5965SOL    HW219890   0.871   0.624   0.573  0.4756  1.3475  0.2053
 5966SOL     OW19891   0.039   1.470   1.279 -0.0722  0.3825  0.2640
 5966SOL    HW119892   0.019   1.486   1.371 -1.4036  0.0190  0.0590
 5966SOL    HW219893  -0.046   1.463   1.236  0.5188  0.6990 -1.0333
 5967SOL     OW19894   4.848   8.836   6.526  0.4528 -0.2810 -0.5191
 5967SOL    HW119895   4.920   8.898   6.516  0.0948 -0.1168 -2.3802
 5967SOL    HW219896   4.769   8.889   6.523  0.1938 -0.5906  0.3427
 5968SOL     OW19897   0.157   0.755   0.641 -0.5250 -0.3041  0.0344
 5968SOL    HW119898   0.156   0.851   0.640 -0.0818 -0.2180 -2.8952
 5968SOL    HW219899   0.175   0.731   0.732 -0.4924  2.3827  0.8069
 5969SOL     OW19900   7.227   0.854   7.858 -0.1262 -0.0149  0.1603
 5969SOL    HW119901   7.135   0.838   7.837  0.7043 -4.3789 -1.1311
 5969SOL    HW219902   7.232   0.841   7.953 -0.7090 -0.6733  0.1081
 5970SOL     OW19903   1.593   0.088   2.781 -0.6497  0.5767 -0.0932
 5970SOL    HW119904   1.502   0.085   2.750 -0.4170  0.5762 -0.7970
 5970SOL    HW219905   1.622   0.177   2.762 -0.1034  0.2070 -1.0676
 5971SOL     OW19906   1.983   5.630   1.211 -0.3206  0.1819 -0.3140
 5971SOL    HW119907   1.890   5.644   1.229 -0.5434 -2.1139  0.5832
 5971SOL    HW219908   2.027   5.700   1.259 -1.5412  0.9637 -0.2913
 5972SOL     OW19909   7.816   1.278   2.586  0.3479 -0.2141  0.2537
 5972SOL    HW119910   7.856   1.364   2.591 -0.6564  0.2788  0.1378
 5972SOL    HW219911   7.757   1.275   2.661 -0.3603 -0.3946 -0.2925
 5973SOL     OW19912   5.541   7.466   3.471 -0.2082  0.4533 -0.0843
 5973SOL    HW119913   5.628   7.440   3.499  0.0512 -0.6296 -1.7429
 5973SOL    HW219914   5.528   7.553   3.508  0.6281 -0.2908  2.1233
 5974SOL     OW19915   1.470   0.992   0.305  0.0578  0.1464  0.5457
 5974SOL    HW119916   1.377   1.000   0.284  0.3481 -2.2843 -2.3381
 5974SOL    HW219917   1.481   0.901   0.333  2.1178 -1.3158 -4.0004
 5975SOL     OW19918   6.225   6.397   8.305  0.2259  0.0516 -0.1051
 5975SOL    HW119919   6.238   6.318   8.357  1.1871 -0.3537 -0.9228
 5975SOL    HW219920   6.278   6.463   8.349  0.0342  0.0434  0.1416
 5976SOL     OW19921   5.049   1.340   0.182  0.3257  0.4611  0.0792
 5976SOL    HW119922   5.034   1.301   0.268  0.1876  1.0274  0.3161
 5976SOL    HW219923   5.089   1.425   0.200  2.2440 -0.2638 -0.4876
 5977SOL     OW19924   8.574   6.049   4.803 -0.2749 -0.7811 -0.1064
 5977SOL    HW119925   8.636   6.042   4.731  1.0126 -1.4548  1.0098
 5977SOL    HW219926   8.613   5.996   4.873 -2.0110 -1.0369  0.7184
 5978SOL     OW19927   0.338   6.730   6.954 -0.2129 -0.0388  0.0458
 5978SOL    HW119928   0.353   6.749   7.047  0.3312  0.0010 -0.0455
 5978SOL    HW219929   0.272   6.661   6.955  0.3534 -0.5911  0.4936
 5979SOL     OW19930   5.752   3.003   3.585 -0.0080 -0.0366  0.4266
 5979SOL    HW119931   5.758   3.086   3.539  0.5789 -0.0666  0.4431
 5979SOL    HW219932   5.842   2.984   3.614  0.0633 -1.1782 -0.4611
 5980SOL     OW19933   4.732   1.022   2.603 -0.7525 -0.3220 -0.0432
 5980SOL    HW119934   4.753   0.976   2.522 -0.4943 -0.4228  0.0816
 5980SOL    HW219935   4.808   1.078   2.619 -1.1779  0.3592 -0.3434
 5981SOL     OW19936   8.142   2.977   5.684  0.5134 -0.1360  0.2395
 5981SOL    HW119937   8.184   2.892   5.691  0.5440 -0.0796  0.8670
 5981SOL    HW219938   8.213   3.040   5.692  0.4882 -0.0512 -0.1993
 5982SOL     OW19939   4.652   0.634   1.764 -0.1997 -0.5188  0.1586
 5982SOL    HW119940   4.593   0.680   1.823 -0.4486 -0.3643 -0.2102
 5982SOL    HW219941   4.678   0.699   1.699  1.5573 -0.1636  1.1542
 5983SOL     OW19942   3.806   5.016   0.227  0.3696 -0.5892  0.2573
 5983SOL    HW119943   3.787   5.109   0.240  0.0297 -0.8895  2.1883
 5983SOL    HW219944   3.721   4.973   0.237  0.3212 -1.0592 -1.7091
 5984SOL     OW19945   5.112   6.527   4.951  0.3213  0.7941 -0.1255
 5984SOL    HW119946   5.178   6.494   4.890 -0.3683 -0.8328 -0.0354
 5984SOL    HW219947   5.041   6.560   4.895 -0.0080 -0.0569 -0.2186
 5985SOL     OW19948   0.611   7.163   3.733 -0.4033 -0.0862  0.2590
 5985SOL    HW119949   0.701   7.131   3.724 -0.2374  0.2654  0.6540
 5985SOL    HW219950   0.569   7.138   3.650 -0.0337 -0.5311  0.1982
 5986SOL     OW19951   8.482   0.243   7.912 -0.1027  0.2212 -0.0432
 5986SOL    HW119952   8.421   0.316   7.921 -1.4668 -1.0515  1.5463
 5986SOL    HW219953   8.427   0.165   7.908  1.3320 -0.7848 -1.3259
 5987SOL     OW19954   7.493   7.570   0.000  0.0680 -0.0396 -0.3462
 5987SOL    HW119955   7.413   7.619  -0.019  0.1416  0.6900  1.1032
 5987SOL    HW219956   7.531   7.554  -0.086 -1.1700  0.3804 -1.0125
 5988SOL     OW19957   3.767   0.255   4.180 -0.2135  0.5429 -0.1714
 5988SOL    HW119958   3.691   0.257   4.122 -0.0401  0.6263 -0.3961
 5988SOL    HW219959   3.824   0.324   4.147  1.2617 -1.3107 -1.7622
 5989SOL     OW19960   0.122   3.608   3.948 -0.1125 -0.5220  0.0396
 5989SOL    HW119961   0.207   3.648   3.928  0.0282 -0.0311  1.4561
 5989SOL    HW219962   0.115   3.535   3.888  0.4859  0.5189 -1.3505
 5990SOL     OW19963   7.651   6.585   1.689 -0.0290 -0.6052  0.0643
 5990SOL    HW119964   7.608   6.652   1.636 -0.3343 -0.2413  0.7551
 5990SOL    HW219965   7.666   6.512   1.629  0.2784  0.0642 -0.6964
 5991SOL     OW19966   3.894   2.365   0.475  0.7553  0.5188  0.0874
 5991SOL    HW119967   3.816   2.344   0.525  0.1640  1.8537 -0.2113
 5991SOL    HW219968   3.889   2.311   0.396 -0.8017  1.8185 -0.7591
 5992SOL     OW19969   0.071   5.478   1.491 -0.1591 -0.1542 -0.3312
 5992SOL    HW119970   0.060   5.531   1.570 -2.1894  0.9051 -1.2411
 5992SOL    HW219971  -0.012   5.489   1.443  1.8295  1.3124 -3.8429
 5993SOL     OW19972   6.624   4.662   5.003 -0.4176 -0.0052  0.5784
 5993SOL    HW119973   6.555   4.703   5.055  0.9670  1.6319  1.2370
 5993SOL    HW219974   6.697   4.652   5.064  0.3609 -0.4958 -0.4091
 5994SOL     OW19975   3.568   1.931   8.416  0.5244 -0.3071  0.3981
 5994SOL    HW119976   3.537   2.020   8.425  1.2905  0.0684 -0.4366
 5994SOL    HW219977   3.610   1.929   8.330  0.1852 -1.5742  0.2341
 5995SOL     OW19978   4.416   3.532   8.836  0.2352  0.0488 -0.3514
 5995SOL    HW119979   4.401   3.626   8.824  2.0970  0.3542 -0.5221
 5995SOL    HW219980   4.385   3.492   8.755 -0.2768  0.5519 -0.4085
 5996SOL     OW19981   5.433   3.234   4.237 -0.2118 -0.3571 -0.2593
 5996SOL    HW119982   5.382   3.232   4.318  0.0510  0.1258 -0.0763
 5996SOL    HW219983   5.464   3.144   4.226  0.8751 -0.1599  0.9127
 5997SOL     OW19984   7.287   0.920   3.884  0.1539 -0.2186  0.4579
 5997SOL    HW119985   7.245   0.862   3.820  1.6255  2.2725 -3.1142
 5997SOL    HW219986   7.380   0.917   3.862  0.4581  2.3028  1.0587
 5998SOL     OW19987   5.140   1.072   0.873 -0.7045  0.5480  0.0503
 5998SOL    HW119988   5.105   0.996   0.827 -0.6942  0.7683 -0.3248
 5998SOL    HW219989   5.214   1.101   0.820  0.0742  0.0704  0.8563
 5999SOL     OW19990   5.161   3.242   0.839  0.0128 -0.0144 -0.4724
 5999SOL    HW119991   5.163   3.172   0.773 -0.0650 -1.6440  1.1912
 5999SOL    HW219992   5.093   3.215   0.900 -0.5218  1.9104 -0.1471
 6000SOL     OW19993   2.772   7.906   8.338 -0.7965 -0.8949  0.3701
 6000SOL    HW119994   2.697   7.942   8.384  0.8144  2.3516  0.7619
 6000SOL    HW219995   2.760   7.932   8.247 -0.3739 -0.6891  0.3678
 6001SOL     OW19996   8.782   4.503   6.892 -0.0654  0.1756 -0.6948
 6001SOL    HW119997   8.823   4.418   6.910 -1.1218 -0.0368  0.9827
 6001SOL    HW219998   8.845   4.567   6.926  0.2243  0.0138 -0.9159
 6002SOL     OW19999   6.308   4.264   1.663  0.8481 -0.4861  0.3087
 6002SOL    HW120000   6.331   4.326   1.732 -1.5058  0.0829  0.6952
 6002SOL    HW220001   6.336   4.306   1.582 -1.7873  1.8051  0.4413
 6003SOL     OW20002   4.864   5.960   4.825  0.0064  0.2795 -0.6160
 6003SOL    HW120003   4.879   5.940   4.918 -0.3748  0.6248 -0.4754
 6003SOL    HW220004   4.769   5.950   4.814 -0.0574  0.9862 -0.7797
 6004SOL     OW20005   0.539   4.532   3.373 -0.0686 -0.4194 -0.5198
 6004SOL    HW120006   0.523   4.624   3.396 -1.1589 -0.7912  0.3245
 6004SOL    HW220007   0.467   4.484   3.415 -0.0266 -1.5655 -1.6964
 6005SOL     OW20008   8.692   2.967   4.345 -0.3008  0.7389  0.6602
 6005SOL    HW120009   8.726   3.055   4.330 -1.2734  0.8384 -1.2806
 6005SOL    HW220010   8.767   2.909   4.332 -0.2763  1.1124 -1.0373
 6006SOL     OW20011   5.948   4.550   7.418 -0.2199 -0.0261 -0.8505
 6006SOL    HW120012   6.029   4.548   7.368  0.2104 -0.5839 -0.1416
 6006SOL    HW220013   5.952   4.472   7.474 -0.5091  0.7804  0.3287
 6007SOL     OW20014   5.629   0.349   3.032 -0.6168  0.4600  0.1955
 6007SOL    HW120015   5.621   0.270   2.978  0.1055 -0.1722  0.9872
 6007SOL    HW220016   5.688   0.406   2.983 -1.4531  0.6894 -0.5717
 6008SOL     OW20017   8.874   6.274   7.464 -0.1038 -0.2185 -0.5458
 6008SOL    HW120018   8.911   6.205   7.409 -1.8329  0.5411 -2.8027
 6008SOL    HW220019   8.933   6.349   7.451  0.6590 -0.6571  0.3246
 6009SOL     OW20020   7.290   2.820   7.094 -0.5545 -0.3326 -0.4845
 6009SOL    HW120021   7.249   2.763   7.159 -0.0518 -0.3597 -0.1835
 6009SOL    HW220022   7.283   2.771   7.012 -2.2232  0.2016 -0.6936
 6010SOL     OW20023   0.305   0.047   3.293 -0.4712  0.1286  0.6244
 6010SOL    HW120024   0.328   0.029   3.202  3.2235 -0.9232  1.5977
 6010SOL    HW220025   0.284  -0.038   3.330 -2.1713  0.5779  0.8166
 6011SOL     OW20026   0.367   7.608   2.229 -0.4532 -0.7909 -0.0262
 6011SOL    HW120027   0.373   7.676   2.161  0.3815 -2.2839 -1.4989
 6011SOL    HW220028   0.279   7.620   2.266 -0.8731  0.1612 -1.2506
 6012SOL     OW20029   1.585   1.451   2.049 -0.1159 -0.4396  0.2494
 6012SOL    HW120030   1.578   1.413   2.137 -0.5022 -0.5725  0.1605
 6012SOL    HW220031   1.509   1.418   2.002  1.5303 -2.6670 -1.0194
 6013SOL     OW20032   6.117   2.221   0.024  0.1537 -0.1250  0.4189
 6013SOL    HW120033   6.128   2.188  -0.065 -0.0935 -0.1000  0.3798
 6013SOL    HW220034   6.096   2.314   0.013  0.8644  0.0558  0.5290
 6014SOL     OW20035   6.092   1.984   2.217 -0.2716  0.1301  0.1924
 6014SOL    HW120036   6.078   1.992   2.312 -1.8519  0.7034 -0.0633
 6014SOL    HW220037   6.178   2.025   2.203 -0.3419  0.7145  1.2824
 6015SOL     OW20038   1.539   2.217   1.436 -0.2008 -0.1684  0.4134
 6015SOL    HW120039   1.577   2.305   1.439 -1.5976  0.5468 -1.4031
 6015SOL    HW220040   1.466   2.220   1.498 -0.8654  0.2942 -0.3729
 6016SOL     OW20041   4.165   3.262   2.406  0.0704 -0.3075 -0.3034
 6016SOL    HW120042   4.077   3.234   2.433 -1.1404  0.8020 -2.7417
 6016SOL    HW220043   4.223   3.193   2.437 -1.7374 -1.4032  0.8284
 6017SOL     OW20044   7.034   8.065   5.477  0.0068 -0.1122 -0.2985
 6017SOL    HW120045   7.105   8.097   5.421  0.7342 -1.5884 -0.2589
 6017SOL    HW220046   6.984   8.144   5.499  2.0686  1.1150  0.2988
 6018SOL     OW20047   7.679   5.853   7.058  0.1822  0.2977  0.2298
 6018SOL    HW120048   7.590   5.856   7.022  0.3129 -0.0319 -0.1192
 6018SOL    HW220049   7.736   5.852   6.981  0.4667 -0.3634  0.4455
 6019SOL     OW20050   2.383   3.099   0.966  0.4674 -0.5924  0.1022
 6019SOL    HW120051   2.353   3.008   0.956 -1.7012  0.2213 -1.8714
 6019SOL    HW220052   2.452   3.109   0.901  0.8631 -0.8911  0.4768
 6020SOL     OW20053   6.529   2.630   5.732  0.2274  0.2291  0.0808
 6020SOL    HW120054   6.477   2.597   5.659 -0.5946  2.1675 -0.2429
 6020SOL    HW220055   6.602   2.568   5.739 -1.3893 -1.8135 -0.2835
 6021SOL     OW20056   2.615   0.373   7.300  0.1122  0.4293 -0.2957
 6021SOL    HW120057   2.688   0.311   7.302 -1.6199 -1.7611 -0.6322
 6021SOL    HW220058   2.645   0.443   7.242  2.0608 -0.1972 -0.1293
 6022SOL     OW20059   7.391   7.001   1.993  0.1137 -0.2846 -0.3758
 6022SOL    HW120060   7.421   6.969   2.078  1.6993  0.0925 -0.7646
 6022SOL    HW220061   7.425   7.091   1.989 -1.7097  0.4389 -0.5575
 6023SOL     OW20062   6.105   4.910   4.682 -0.0340 -0.5579  0.7023
 6023SOL    HW120063   6.158   4.980   4.644 -2.2707 -0.1259 -2.0600
 6023SOL    HW220064   6.116   4.836   4.622  1.4418 -2.3181  2.9819
 6024SOL     OW20065   7.867   8.369   2.429  0.0694  0.3203  0.3461
 6024SOL    HW120066   7.774   8.392   2.433  0.0390  0.2491  0.0465
 6024SOL    HW220067   7.912   8.453   2.419  0.0650  0.3903  0.8821
 6025SOL     OW20068   7.243   4.122   2.301 -0.2324 -0.2346 -0.4191
 6025SOL    HW120069   7.159   4.122   2.255  0.4424 -1.3445 -1.7463
 6025SOL    HW220070   7.244   4.039   2.348  0.4325 -0.6185 -1.0763
 6026SOL     OW20071   2.362   0.931   1.675 -0.4395  0.0187 -0.3148
 6026SOL    HW120072   2.432   0.974   1.628  0.2021  0.8862  1.3509
 6026SOL    HW220073   2.338   0.992   1.745  0.0278 -1.9435  1.7032
 6027SOL     OW20074   7.454   4.295   0.218 -0.5200  0.5053  0.3752
 6027SOL    HW120075   7.380   4.258   0.267  2.2283 -1.9520  3.1771
 6027SOL    HW220076   7.506   4.341   0.285  1.9779 -0.5158 -0.7328
 6028SOL     OW20077   5.423   6.502   1.861  0.0110  0.0525  0.3038
 6028SOL    HW120078   5.429   6.548   1.944  1.3566 -0.5210  0.5551
 6028SOL    HW220079   5.395   6.569   1.798  1.0689  1.0091  0.8203
 6029SOL     OW20080   8.030   5.494   3.113  0.3935  0.8118 -0.1392
 6029SOL    HW120081   7.994   5.544   3.186  1.0823  2.0646 -0.6465
 6029SOL    HW220082   7.972   5.513   3.039 -0.1615 -0.2658 -0.0147
 6030SOL     OW20083   7.176   5.755   2.800  0.5460 -0.0067 -0.3666
 6030SOL    HW120084   7.271   5.769   2.807  0.2029  2.4133  0.1813
 6030SOL    HW220085   7.165   5.712   2.715  2.1378 -0.5798 -0.3234
 6031SOL     OW20086   5.424   0.624   5.166 -0.1302  0.4162  0.0987
 6031SOL    HW120087   5.487   0.632   5.238 -0.1110 -1.3207  0.3074
 6031SOL    HW220088   5.398   0.715   5.148  3.0590  1.3360 -0.5976
 6032SOL     OW20089   7.661   5.945   2.220 -0.1135 -0.3791 -0.2692
 6032SOL    HW120090   7.695   5.909   2.301 -1.6648 -1.3484 -0.0075
 6032SOL    HW220091   7.649   6.038   2.238 -0.4144 -0.5783  0.6141
 6033SOL     OW20092   1.853   5.995   2.278  0.2255  0.1200  0.4412
 6033SOL    HW120093   1.832   5.986   2.371 -0.9534  1.5764  0.3478
 6033SOL    HW220094   1.770   5.979   2.234  0.6646 -0.0447 -0.3409
 6034SOL     OW20095   8.802   7.210   4.515  0.0849 -0.1345  0.5110
 6034SOL    HW120096   8.741   7.156   4.465  0.2920 -0.6936  0.8534
 6034SOL    HW220097   8.747   7.270   4.566 -0.2019 -0.9514  1.1764
 6035SOL     OW20098   6.583   6.883   7.970  0.4841 -0.1383  0.5876
 6035SOL    HW120099   6.573   6.923   8.057  0.3174 -0.4328  0.7040
 6035SOL    HW220100   6.530   6.804   7.974 -0.9049  0.7193 -0.3388
 6036SOL     OW20101   1.242   3.191   1.649 -0.4595  0.1194 -0.5307
 6036SOL    HW120102   1.264   3.175   1.740  0.1387 -0.3227 -0.7473
 6036SOL    HW220103   1.161   3.141   1.634 -0.1181 -0.4569 -0.4605
 6037SOL     OW20104   7.006   5.169   1.331 -0.1198 -0.1438  0.1291
 6037SOL    HW120105   6.941   5.190   1.398  0.0685  0.1296  0.2274
 6037SOL    HW220106   7.044   5.086   1.361 -0.0369 -0.0241  0.3624
 6038SOL     OW20107   4.519   6.281   6.820  0.3408  0.2440 -0.3900
 6038SOL    HW120108   4.584   6.228   6.864 -0.1434  0.4339  0.5741
 6038SOL    HW220109   4.565   6.361   6.796  0.7603 -0.1092 -0.7902
 6039SOL     OW20110   8.632   4.775   5.130  0.9413 -0.4435 -0.2701
 6039SOL    HW120111   8.693   4.727   5.073  1.9512  1.6502 -1.0725
 6039SOL    HW220112   8.557   4.716   5.139  2.5499 -2.6250 -0.2398
 6040SOL     OW20113   1.092   2.453   5.709 -0.0140  0.1604 -0.4727
 6040SOL    HW120114   1.042   2.502   5.645  0.7736 -1.0660 -2.0967
 6040SOL    HW220115   1.034   2.446   5.785 -1.1854  1.1566 -1.2472
 6041SOL     OW20116   6.157   2.014   3.626 -0.2725 -0.3576 -0.0209
 6041SOL    HW120117   6.204   1.939   3.590  0.4957  0.0226  0.1738
 6041SOL    HW220118   6.086   1.975   3.678  0.1846 -0.9555  0.1700
 6042SOL     OW20119   2.753   4.477   6.616  0.1122 -0.4821  0.4809
 6042SOL    HW120120   2.813   4.475   6.541 -0.0683  2.4969  0.1712
 6042SOL    HW220121   2.784   4.406   6.673  1.5592 -1.4474 -1.3897
 6043SOL     OW20122   3.654   5.010   3.464  0.2676  0.0341  0.4314
 6043SOL    HW120123   3.705   4.945   3.415 -0.7136  0.1158 -0.7420
 6043SOL    HW220124   3.699   5.093   3.449 -0.1047  0.0790 -0.4574
 6044SOL     OW20125   2.906   1.448   4.068  0.0705  0.3730  0.4642
 6044SOL    HW120126   2.878   1.434   4.159  0.3785 -0.4490  0.4349
 6044SOL    HW220127   2.953   1.369   4.045  0.7131  0.9239 -0.1468
 6045SOL     OW20128   2.197   1.261   1.629  0.0959 -0.3414  0.4218
 6045SOL    HW120129   2.233   1.311   1.555  0.1489  1.9999  1.9132
 6045SOL    HW220130   2.214   1.170   1.607  2.3392  0.3942 -1.3357
 6046SOL     OW20131   6.698   4.828   4.404  0.0950 -0.2909  0.2143
 6046SOL    HW120132   6.672   4.814   4.313 -0.8267 -1.1266  0.5970
 6046SOL    HW220133   6.706   4.740   4.440  1.7179 -0.0154  0.6143
 6047SOL     OW20134   1.650   5.946   1.180  0.0004  0.2043  0.0155
 6047SOL    HW120135   1.701   5.927   1.258  0.6913  0.8687 -0.2718
 6047SOL    HW220136   1.662   6.039   1.164  0.8871 -0.1544 -1.5973
 6048SOL     OW20137   7.670   0.499   1.429  0.1070 -0.5853 -0.1210
 6048SOL    HW120138   7.685   0.452   1.347  2.0762 -0.7171  0.2723
 6048SOL    HW220139   7.713   0.584   1.417 -2.1646  0.6245 -0.2809
 6049SOL     OW20140   0.035   5.437   6.947 -0.4385 -0.3318 -0.3549
 6049SOL    HW120141   0.106   5.463   7.006 -1.8637  2.0931  0.4323
 6049SOL    HW220142   0.068   5.458   6.859  0.6776 -1.4925 -0.2475
 6050SOL     OW20143   0.461   3.547   1.511 -0.7114  0.2752  0.3964
 6050SOL    HW120144   0.410   3.628   1.523 -2.8603 -0.7284 -1.4139
 6050SOL    HW220145   0.401   3.487   1.467  1.5471 -1.5885 -0.3077
 6051SOL     OW20146   0.144   6.365   5.260  0.6808  0.1498 -0.5721
 6051SOL    HW120147   0.084   6.387   5.332  1.8278  0.6655  0.2583
 6051SOL    HW220148   0.145   6.443   5.205  1.4199  0.5736  0.0205
 6052SOL     OW20149   0.395   5.594   5.238 -0.2868 -0.3437  0.2257
 6052SOL    HW120150   0.367   5.603   5.147  1.6818  1.4283 -0.2769
 6052SOL    HW220151   0.489   5.576   5.234  0.3537  2.0192  1.8536
 6053SOL     OW20152   0.097   0.617   1.421 -0.6532 -0.1832 -0.6622
 6053SOL    HW120153   0.176   0.664   1.396  0.4565 -1.6217 -0.0452
 6053SOL    HW220154   0.068   0.660   1.501 -0.0232 -0.1170 -0.4609
 6054SOL     OW20155   4.907   6.126   8.622  0.0629 -0.3275 -0.2819
 6054SOL    HW120156   4.968   6.071   8.573 -0.2734 -1.4532  0.5167
 6054SOL    HW220157   4.964   6.181   8.677  0.4291 -2.5426  1.7245
 6055SOL     OW20158   2.464   2.640   1.755 -0.2075 -0.4990 -0.0009
 6055SOL    HW120159   2.370   2.633   1.773 -0.2276 -1.5901 -0.4328
 6055SOL    HW220160   2.504   2.651   1.841 -0.6238 -1.4419  0.3291
 6056SOL     OW20161   1.223   2.581   7.639  0.3539 -0.2070  0.1380
 6056SOL    HW120162   1.216   2.669   7.601 -0.6214 -0.1749  0.3478
 6056SOL    HW220163   1.269   2.530   7.573  1.3509  0.5734  0.2120
 6057SOL     OW20164   5.158   3.117   2.371  0.0392  0.0139 -0.4882
 6057SOL    HW120165   5.190   3.198   2.410  0.7218  0.4163 -1.8350
 6057SOL    HW220166   5.237   3.068   2.350 -0.3355 -0.5074 -0.6969
 6058SOL     OW20167   1.408   6.433   5.077  0.1002  0.0340 -1.3474
 6058SOL    HW120168   1.466   6.440   5.153 -1.4048 -0.0656 -0.1180
 6058SOL    HW220169   1.375   6.343   5.081 -0.8267  0.3560 -1.4510
 6059SOL     OW20170   0.969   3.569   7.009 -0.0441 -0.6715 -0.4157
 6059SOL    HW120171   0.907   3.516   7.059  0.2975 -0.9482 -0.2862
 6059SOL    HW220172   0.920   3.648   6.986 -0.1819 -0.5119  0.4139
 6060SOL     OW20173   0.628   4.450   7.520 -0.8367  0.5234  0.6662
 6060SOL    HW120174   0.532   4.449   7.511 -0.9523 -2.1974  1.1566
 6060SOL    HW220175   0.642   4.446   7.615 -0.2666  0.0401  0.5627
 6061SOL     OW20176   8.780   6.123   1.055 -0.4095 -0.0974  0.1816
 6061SOL    HW120177   8.787   6.033   1.086 -2.1921 -0.1647  0.5160
 6061SOL    HW220178   8.704   6.122   0.996  1.9725  0.3251 -3.1967
 6062SOL     OW20179   4.726   5.141   8.730  0.0961 -0.1708 -0.2308
 6062SOL    HW120180   4.684   5.186   8.656 -0.4466 -1.3502 -0.6706
 6062SOL    HW220181   4.819   5.143   8.709 -0.0937 -0.9793 -1.2617
 6063SOL     OW20182   3.508   1.950   7.798 -0.0811 -0.3074 -0.4211
 6063SOL    HW120183   3.488   1.966   7.706  1.0709  0.1785 -0.6025
 6063SOL    HW220184   3.428   1.912   7.833 -0.2483 -1.3427 -1.8327
 6064SOL     OW20185   7.339   1.006   0.398 -0.1831 -0.1009 -0.1513
 6064SOL    HW120186   7.356   0.932   0.457  0.9269  0.9571  0.9174
 6064SOL    HW220187   7.295   1.071   0.452 -1.6585 -0.1410 -1.2227
 6065SOL     OW20188   2.563   2.293   3.558  0.7158  0.0621 -0.0422
 6065SOL    HW120189   2.624   2.352   3.601 -0.1204  1.9009 -1.2691
 6065SOL    HW220190   2.554   2.326   3.469 -0.5182 -1.3586 -0.5094
 6066SOL     OW20191   2.636   3.982   1.830 -0.0657 -0.3044  0.8159
 6066SOL    HW120192   2.677   3.910   1.782 -0.1084  0.3004 -0.1686
 6066SOL    HW220193   2.551   3.994   1.786  0.7849  1.6797 -0.4114
 6067SOL     OW20194   6.442   5.208   1.374 -0.0769 -0.2417  0.3731
 6067SOL    HW120195   6.423   5.301   1.382  0.7418 -0.0790  0.5118
 6067SOL    HW220196   6.535   5.204   1.351 -0.5888 -0.9352 -1.9051
 6068SOL     OW20197   2.351   5.626   7.475  0.1929  0.0201  0.2081
 6068SOL    HW120198   2.368   5.582   7.392  1.0921 -1.1974  0.9977
 6068SOL    HW220199   2.372   5.561   7.542 -0.8254  0.8593  1.3984
 6069SOL     OW20200   6.181   2.564   3.128 -0.3434 -0.1270 -0.1818
 6069SOL    HW120201   6.203   2.501   3.197  2.4342 -0.7290 -1.4507
 6069SOL    HW220202   6.239   2.639   3.144 -1.6906  0.9765 -0.2544
 6070SOL     OW20203   0.060   1.630   6.830 -0.0844  0.4095  0.1041
 6070SOL    HW120204   0.116   1.560   6.863 -0.5081  0.1621  0.3008
 6070SOL    HW220205   0.034   1.601   6.742 -0.9004 -0.0536  0.4925
 6071SOL     OW20206   6.933   3.168   3.922 -0.2259  0.1780  0.3405
 6071SOL    HW120207   6.992   3.186   3.849 -1.8890  0.1453 -1.0707
 6071SOL    HW220208   6.941   3.245   3.979 -1.4800  1.8940 -1.6676
 6072SOL     OW20209   5.151   7.191   7.258 -0.3798  0.1407 -0.6199
 6072SOL    HW120210   5.094   7.174   7.183 -0.7119 -2.3198  0.0855
 6072SOL    HW220211   5.097   7.170   7.334  0.3210  1.4412  0.2740
 6073SOL     OW20212   8.281   8.714   0.107 -0.1177 -0.4906 -0.1094
 6073SOL    HW120213   8.297   8.751   0.020 -1.0017  1.6727  0.6091
 6073SOL    HW220214   8.189   8.690   0.107 -0.9770  2.4083  1.1743
 6074SOL     OW20215   1.999   0.622   6.505  0.3923  0.1924  0.0567
 6074SOL    HW120216   2.032   0.630   6.416 -0.2442 -1.0620 -0.3081
 6074SOL    HW220217   1.988   0.713   6.535 -0.4046  0.6493 -1.5246
 6075SOL     OW20218   1.728   0.889   4.158 -0.1292 -0.1887 -0.2106
 6075SOL    HW120219   1.706   0.831   4.231  1.2954  0.9614  1.2090
 6075SOL    HW220220   1.743   0.830   4.084  0.0156 -1.5324  0.8421
 6076SOL     OW20221   7.873   6.080   4.501 -0.0706 -0.3598  0.4145
 6076SOL    HW120222   7.846   6.026   4.427 -0.4024 -0.6114  0.7161
 6076SOL    HW220223   7.840   6.167   4.480 -1.1825 -0.6656  0.7935
 6077SOL     OW20224   8.625   7.513   3.092 -0.2078  0.2861  0.4872
 6077SOL    HW120225   8.664   7.471   3.169 -0.3270  0.2059  0.5050
 6077SOL    HW220226   8.539   7.543   3.123  0.7101  2.4330  1.0877
 6078SOL     OW20227   0.858   3.649   3.415  0.0055 -0.3974 -0.2261
 6078SOL    HW120228   0.807   3.607   3.485 -1.5420  1.3006 -0.2785
 6078SOL    HW220229   0.826   3.608   3.335 -0.0666 -0.5071 -0.1434
 6079SOL     OW20230   3.936   2.822   2.349  0.1712 -0.5412 -0.8901
 6079SOL    HW120231   3.911   2.730   2.337  1.8750 -1.1115 -0.3537
 6079SOL    HW220232   3.969   2.826   2.438  0.3993  0.5361 -1.0124
 6080SOL     OW20233   7.822   3.117   8.365 -0.0188 -0.1963  0.5252
 6080SOL    HW120234   7.772   3.198   8.361  0.3011  0.0461  1.2674
 6080SOL    HW220235   7.913   3.146   8.376 -0.0351 -0.6537  2.0920
 6081SOL     OW20236   6.316   5.697   8.372 -0.0304 -0.2681 -0.4265
 6081SOL    HW120237   6.247   5.724   8.311 -2.3404 -1.6255  1.4338
 6081SOL    HW220238   6.332   5.605   8.350 -0.3026 -0.5375  0.4628
 6082SOL     OW20239   2.891   2.449   1.778  0.1803  0.2103 -0.2008
 6082SOL    HW120240   2.816   2.397   1.807  0.9600 -2.0700 -1.9304
 6082SOL    HW220241   2.877   2.535   1.817 -1.3352 -1.1718  2.6631
 6083SOL     OW20242   4.098   1.737   0.606 -0.1487  0.1389 -0.4013
 6083SOL    HW120243   4.031   1.790   0.649  0.0473  0.7775 -0.8701
 6083SOL    HW220244   4.049   1.670   0.557 -0.4687  0.8643 -1.0861
 6084SOL     OW20245   2.657   6.664   5.553  0.3110 -0.7092  0.0015
 6084SOL    HW120246   2.646   6.612   5.474  0.8653 -0.7311 -0.0698
 6084SOL    HW220247   2.751   6.660   5.571  0.2954 -0.0906  0.2376
 6085SOL     OW20248   0.598   3.219   3.338  0.3294 -0.6854 -0.7510
 6085SOL    HW120249   0.614   3.295   3.395 -1.2783 -0.6437 -0.2831
 6085SOL    HW220250   0.636   3.145   3.385 -1.5981 -0.7669  0.8130
 6086SOL     OW20251   6.831   2.644   4.808 -0.7966 -0.1095 -0.0327
 6086SOL    HW120252   6.834   2.578   4.878 -1.9812 -1.2529 -1.0381
 6086SOL    HW220253   6.911   2.628   4.757 -0.4414  0.0750  0.4536
 6087SOL     OW20254   8.064   7.747   2.715 -0.0157  0.2451  0.2576
 6087SOL    HW120255   8.019   7.830   2.732  2.1675  1.4233  0.6634
 6087SOL    HW220256   8.067   7.740   2.620 -0.7873  0.2757  0.2239
 6088SOL     OW20257   4.506   3.389   2.021  0.2455 -0.3857 -0.1112
 6088SOL    HW120258   4.442   3.381   2.091  0.9921 -3.5123  0.3577
 6088SOL    HW220259   4.535   3.480   2.025  1.3437 -0.6853  4.6822
 6089SOL     OW20260   1.258   1.911   2.514 -0.3134 -1.0456  0.0800
 6089SOL    HW120261   1.194   1.920   2.443 -2.5781  0.5239  2.1172
 6089SOL    HW220262   1.208   1.931   2.594  2.6986  0.1675  1.8609
 6090SOL     OW20263   6.495   2.987   6.976 -0.2256  0.8181  0.5637
 6090SOL    HW120264   6.571   3.045   6.975 -1.4628  2.5054  0.5791
 6090SOL    HW220265   6.474   2.974   6.884  0.5991 -0.4013  0.5276
 6091SOL     OW20266   5.721   2.097   8.795  1.0261  0.5310  0.2479
 6091SOL    HW120267   5.680   2.162   8.738 -1.5173 -1.1923 -0.0249
 6091SOL    HW220268   5.744   2.145   8.875  0.0429  1.9346 -0.2935
 6092SOL     OW20269   0.005   3.868   7.544 -0.6135 -0.5165  0.9249
 6092SOL    HW120270   0.022   3.952   7.501  1.1047 -0.9780  0.6511
 6092SOL    HW220271  -0.048   3.891   7.620 -0.8205  0.7162  0.4309
 6093SOL     OW20272   7.568   1.839   5.201  0.9228 -0.0894 -0.1600
 6093SOL    HW120273   7.662   1.841   5.181  1.1309 -0.3009  0.7261
 6093SOL    HW220274   7.563   1.869   5.292 -0.0466  1.6884 -0.7615
 6094SOL     OW20275   4.450   2.278   7.828  0.1290  0.1053  0.0200
 6094SOL    HW120276   4.401   2.229   7.893  0.6826 -0.4814  0.0018
 6094SOL    HW220277   4.419   2.244   7.744 -0.4508  0.7311 -0.0268
 6095SOL     OW20278   1.738   5.977   7.943  0.0773 -0.2711  0.0132
 6095SOL    HW120279   1.811   6.019   7.898 -1.6376  4.0551  0.7993
 6095SOL    HW220280   1.665   5.982   7.880 -1.0496  1.2190  1.3770
 6096SOL     OW20281   7.166   4.653   5.286 -0.5260  0.1108  0.0226
 6096SOL    HW120282   7.116   4.626   5.209 -1.1922  0.7263  0.2234
 6096SOL    HW220283   7.223   4.723   5.255  0.2814 -0.6495 -0.2256
 6097SOL     OW20284   4.038   1.488   1.021 -0.3477 -0.0440 -0.1814
 6097SOL    HW120285   4.090   1.504   0.942 -1.3675  3.8194 -0.2982
 6097SOL    HW220286   3.948   1.477   0.988 -0.4440 -0.7359  0.3132
 6098SOL     OW20287   1.366   4.693   3.383  0.2000  0.5086 -0.3038
 6098SOL    HW120288   1.396   4.767   3.331  0.3357  0.5383 -0.1847
 6098SOL    HW220289   1.350   4.623   3.320  2.4239 -0.1631 -0.1918
 6099SOL     OW20290   8.811   2.050   4.851  0.1612 -0.2903  0.1125
 6099SOL    HW120291   8.760   2.081   4.776 -0.4761  1.3521  1.1593
 6099SOL    HW220292   8.805   1.955   4.847 -3.4356 -0.2173  0.4116
 6100SOL     OW20293   5.208   0.875   5.777 -0.9645  0.0423  0.3058
 6100SOL    HW120294   5.232   0.813   5.846 -0.3361  0.8588  0.8393
 6100SOL    HW220295   5.251   0.841   5.698 -1.6427 -0.8677  0.3180
 6101SOL     OW20296   1.415   7.629   3.379 -0.0202 -0.0839  0.3924
 6101SOL    HW120297   1.342   7.614   3.439  1.4254 -0.2326  2.1788
 6101SOL    HW220298   1.406   7.721   3.353 -0.8210 -0.0930  0.6098
 6102SOL     OW20299   7.564   8.596   1.486 -0.3197 -0.5202 -0.3385
 6102SOL    HW120300   7.513   8.669   1.450  0.6607  0.0164 -0.7028
 6102SOL    HW220301   7.621   8.569   1.413 -1.0724 -2.0543 -0.3891
 6103SOL     OW20302   2.425   1.864   7.007  0.4211  0.6628  0.0888
 6103SOL    HW120303   2.397   1.912   7.085 -0.0614  1.5335 -0.6098
 6103SOL    HW220304   2.432   1.930   6.938  0.1892 -0.1881 -0.7821
 6104SOL     OW20305   4.913   5.290   0.084  0.4535 -0.2543 -0.2761
 6104SOL    HW120306   4.947   5.359   0.028  1.1712 -0.2433  0.1598
 6104SOL    HW220307   4.854   5.240   0.028 -0.9976  1.3980 -0.2982
 6105SOL     OW20308   2.646   8.596   0.053 -0.0038  0.3516 -0.4562
 6105SOL    HW120309   2.570   8.647   0.025  0.7037  2.3129  1.0077
 6105SOL    HW220310   2.713   8.615  -0.012 -0.4204 -0.6218 -1.2077
 6106SOL     OW20311   2.600   7.963   7.237  0.2348  0.1870  0.3431
 6106SOL    HW120312   2.663   8.026   7.271 -0.9704  0.8068  1.5401
 6106SOL    HW220313   2.645   7.879   7.241  0.7372  0.4871  1.9270
 6107SOL     OW20314   7.945   2.040   1.305  0.0439  0.0351  0.7697
 6107SOL    HW120315   8.029   2.007   1.337  0.7378 -1.6814 -2.4253
 6107SOL    HW220316   7.880   1.988   1.352  0.7458  0.6524  2.5156
 6108SOL     OW20317   7.776   1.468   1.048  0.5284  0.3055 -0.0088
 6108SOL    HW120318   7.800   1.434   0.962  0.3240  0.9182 -0.3176
 6108SOL    HW220319   7.833   1.544   1.060  1.0401 -0.1730  0.7027
 6109SOL     OW20320   4.915   3.874   5.595 -0.0666  0.0689 -0.5362
 6109SOL    HW120321   4.997   3.893   5.549 -0.0917  0.5731 -0.3813
 6109SOL    HW220322   4.896   3.954   5.645  0.3684 -0.7571  0.9866
 6110SOL     OW20323   4.991   3.052   5.564  0.1095  0.6195  0.9041
 6110SOL    HW120324   5.038   3.092   5.492 -1.9256  1.2507 -0.1379
 6110SOL    HW220325   4.899   3.050   5.536 -0.5254 -0.5785  2.8151
 6111SOL     OW20326   5.876   2.778   5.540 -0.2178 -0.1807  0.5221
 6111SOL    HW120327   5.817   2.820   5.603  0.0165  0.4648  0.3218
 6111SOL    HW220328   5.959   2.825   5.551 -0.3877  0.4796 -0.8129
 6112SOL     OW20329   2.491   4.019   7.161 -0.2503  0.4515 -0.7233
 6112SOL    HW120330   2.502   3.998   7.254  2.7205 -1.1222 -1.3122
 6112SOL    HW220331   2.437   3.948   7.127 -0.4421  0.4342 -0.3863
 6113SOL     OW20332   4.345   7.032   8.558  0.0057  0.3701 -0.7501
 6113SOL    HW120333   4.307   7.073   8.480 -1.1913 -0.4943 -0.6548
 6113SOL    HW220334   4.359   6.941   8.533 -0.3150  0.1011  0.0110
 6114SOL     OW20335   4.485   7.746   4.967  0.9166 -0.2617  0.1605
 6114SOL    HW120336   4.415   7.752   4.902  1.3721 -0.0246 -0.3162
 6114SOL    HW220337   4.449   7.691   5.036  0.1271  0.1517  0.0926
 6115SOL     OW20338   7.106   6.866   0.449 -0.6284  0.8125 -0.5934
 6115SOL    HW120339   7.172   6.935   0.439 -0.3147  0.5459 -0.4024
 6115SOL    HW220340   7.149   6.801   0.506 -1.4156  1.1020  0.3630
 6116SOL     OW20341   0.252   4.765   5.400 -0.2614  0.1316 -0.2847
 6116SOL    HW120342   0.338   4.807   5.391 -1.3731  2.1302 -4.2295
 6116SOL    HW220343   0.198   4.829   5.446 -0.3123  0.1079 -0.3106
 6117SOL     OW20344   7.788   4.353   4.902  0.5829  0.0897 -0.1011
 6117SOL    HW120345   7.814   4.267   4.870  1.6345  0.5276 -0.4977
 6117SOL    HW220346   7.764   4.401   4.823  3.0107  1.1217 -0.3198
 6118SOL     OW20347   3.544   3.665   6.305  0.0647 -0.0171 -0.5966
 6118SOL    HW120348   3.573   3.578   6.333 -2.5589 -1.4532 -1.9968
 6118SOL    HW220349   3.479   3.691   6.370  2.3638  2.0227  1.0752
 6119SOL     OW20350   6.441   4.189   7.000  0.1437  0.1740 -0.1042
 6119SOL    HW120351   6.532   4.197   7.029 -0.3131  0.3127  1.3725
 6119SOL    HW220352   6.413   4.279   6.982 -0.0838  0.2707  0.7047
 6120SOL     OW20353   0.999   0.668   1.372  0.0562 -0.0502  0.8362
 6120SOL    HW120354   0.998   0.582   1.413 -0.8408  0.2196  1.3849
 6120SOL    HW220355   0.927   0.716   1.412 -1.2942  0.0141 -1.5057
 6121SOL     OW20356   2.074   6.532   1.487  0.4211 -0.2289  0.1051
 6121SOL    HW120357   2.132   6.603   1.459  0.3594 -0.4338 -0.5768
 6121SOL    HW220358   2.124   6.452   1.471 -0.3501 -0.4699 -1.3740
 6122SOL     OW20359   6.053   1.778   4.128  0.0084 -0.1330  0.1368
 6122SOL    HW120360   6.010   1.702   4.088 -0.0488 -0.4369  0.7732
 6122SOL    HW220361   6.143   1.748   4.145  0.6650  0.6558 -1.6554
 6123SOL     OW20362   1.609   4.899   1.872 -0.4115 -0.5599 -0.2502
 6123SOL    HW120363   1.648   4.826   1.920  0.5133 -0.3660 -0.7046
 6123SOL    HW220364   1.544   4.858   1.815 -1.3938 -0.8134  0.9979
 6124SOL     OW20365   8.381   0.086   2.478 -0.3612  0.2370  0.7450
 6124SOL    HW120366   8.341   0.138   2.408 -0.8208 -1.7934 -0.6108
 6124SOL    HW220367   8.309   0.066   2.537 -0.4154  0.2784  0.6938
 6125SOL     OW20368   8.142   6.082   3.051 -0.1885 -0.3358 -0.4848
 6125SOL    HW120369   8.107   6.028   3.122 -2.3601  1.5444  0.0105
 6125SOL    HW220370   8.122   6.032   2.972  1.7064 -2.1726  0.1180
 6126SOL     OW20371   0.947   8.364   3.469 -0.0130  0.9644 -0.1388
 6126SOL    HW120372   1.015   8.362   3.537 -0.3561  2.3627  0.2793
 6126SOL    HW220373   0.937   8.273   3.443  3.0633  0.8422 -1.2840
 6127SOL     OW20374   1.701   8.055   2.898 -0.6792  0.4025 -0.1042
 6127SOL    HW120375   1.718   8.149   2.908 -2.5997  0.7596  0.1407
 6127SOL    HW220376   1.697   8.022   2.987 -0.3963  0.1627 -0.1804
 6128SOL     OW20377   5.638   6.970   1.457 -0.5456 -0.3491  0.2738
 6128SOL    HW120378   5.548   7.000   1.443 -0.5709 -0.8319 -0.7183
 6128SOL    HW220379   5.692   7.043   1.428 -0.6190 -0.6219 -0.5824
 6129SOL     OW20380   8.240   3.459   0.554  0.4342  0.3573  0.3399
 6129SOL    HW120381   8.210   3.428   0.640 -1.1391 -0.2294 -0.3787
 6129SOL    HW220382   8.226   3.553   0.556  0.7275  0.3951  0.8390
 6130SOL     OW20383   2.557   1.164   0.151  0.2867  0.1747  0.6975
 6130SOL    HW120384   2.566   1.203   0.064  1.8841  0.4066  0.9326
 6130SOL    HW220385   2.643   1.176   0.192 -0.4655  0.1903  2.3664
 6131SOL     OW20386   6.019   4.042   5.920 -0.1543 -0.1393  0.5025
 6131SOL    HW120387   5.948   4.047   5.857 -2.2406 -1.5359  2.5461
 6131SOL    HW220388   6.008   4.120   5.975  0.8000  0.3645  0.0036
 6132SOL     OW20389   4.189   7.074   1.051 -0.1114  0.3754 -0.2058
 6132SOL    HW120390   4.266   7.110   1.007  0.7553 -1.0524  0.0854
 6132SOL    HW220391   4.182   7.124   1.132  1.7554 -0.8013  0.7426
 6133SOL     OW20392   8.711   1.133   7.321 -0.1962 -0.6195 -0.3259
 6133SOL    HW120393   8.624   1.099   7.301  0.2458 -1.6704 -0.5705
 6133SOL    HW220394   8.709   1.224   7.292 -1.9578  0.1245  1.8827
 6134SOL     OW20395   2.485   6.269   1.619  0.1929 -0.1395  0.0442
 6134SOL    HW120396   2.502   6.242   1.710 -2.3899 -0.5758  0.4682
 6134SOL    HW220397   2.533   6.205   1.566  2.1206  0.3892  1.0536
 6135SOL     OW20398   1.294   6.333   1.832 -0.6924  0.0911  0.1408
 6135SOL    HW120399   1.364   6.271   1.851  0.2234  1.4720  1.4899
 6135SOL    HW220400   1.215   6.291   1.867 -0.3838 -0.9850 -0.3988
 6136SOL     OW20401   7.244   3.178   6.651 -0.4657 -0.0788 -0.3763
 6136SOL    HW120402   7.180   3.241   6.618 -0.4439  0.4312  0.5253
 6136SOL    HW220403   7.191   3.109   6.690 -0.5045 -0.9449 -1.8870
 6137SOL     OW20404   3.523   3.900   6.841  0.0053 -0.8076  0.2717
 6137SOL    HW120405   3.592   3.966   6.833  0.6723 -1.6856 -2.2858
 6137SOL    HW220406   3.569   3.816   6.831 -1.3229 -1.4333 -0.9070
 6138SOL     OW20407   7.323   7.469   6.263 -0.4838 -0.3799 -0.5280
 6138SOL    HW120408   7.253   7.527   6.234 -1.3781 -1.6547 -0.9920
 6138SOL    HW220409   7.399   7.496   6.212 -1.0524 -0.0670 -1.2271
 6139SOL     OW20410   1.783   4.971   0.806 -0.3221  0.4827 -0.3746
 6139SOL    HW120411   1.701   4.922   0.812  0.0356 -0.0189  0.8544
 6139SOL    HW220412   1.851   4.905   0.817  0.2673  0.8750 -1.4979
 6140SOL     OW20413   0.919   6.089   7.590 -0.2383  0.2748  0.1767
 6140SOL    HW120414   1.010   6.083   7.619 -0.1476  1.1429  0.0860
 6140SOL    HW220415   0.900   6.002   7.554  1.3676  0.7932 -2.1546
 6141SOL     OW20416   0.699   3.628   8.303  0.9857 -0.3092  0.2677
 6141SOL    HW120417   0.693   3.720   8.277 -0.0840 -1.0419 -2.4056
 6141SOL    HW220418   0.632   3.618   8.371  0.3783  0.6771 -0.1607
 6142SOL     OW20419   7.025   7.222   5.363  0.1004 -0.5464  0.0378
 6142SOL    HW120420   7.042   7.277   5.286 -0.0741 -0.9986 -0.3273
 6142SOL    HW220421   6.980   7.145   5.328 -3.7394  1.0186  1.0542
 6143SOL     OW20422   0.290   7.584   8.003 -0.1256 -0.0546  0.2683
 6143SOL    HW120423   0.249   7.556   8.085  0.3916  1.3233  1.0274
 6143SOL    HW220424   0.364   7.638   8.031 -1.3274  2.4733 -1.0414
 6144SOL     OW20425   5.105   8.048   4.868 -0.0607  0.3698  0.3769
 6144SOL    HW120426   5.013   8.058   4.840 -0.7176 -0.4887  2.0675
 6144SOL    HW220427   5.145   7.996   4.799 -1.1961 -0.3307  0.2085
 6145SOL     OW20428   1.074   4.646   6.525  0.0692  0.3867  0.5464
 6145SOL    HW120429   1.005   4.584   6.547 -1.9732  1.8836 -1.1600
 6145SOL    HW220430   1.104   4.681   6.609 -1.3142 -0.2706  1.3389
 6146SOL     OW20431   4.445   4.019   3.954 -0.4884 -0.0732 -0.1056
 6146SOL    HW120432   4.407   3.951   3.898  0.8685 -0.4942 -0.5456
 6146SOL    HW220433   4.413   4.101   3.917 -1.4259 -0.4179 -0.1031
 6147SOL     OW20434   3.110   2.213   7.343 -0.3482  0.1942 -0.3911
 6147SOL    HW120435   3.071   2.297   7.316 -0.9928  0.3531  0.9611
 6147SOL    HW220436   3.042   2.171   7.395  0.6896 -0.2796  0.6110
 6148SOL     OW20437   0.579   2.166   2.461  0.6770  0.0203  0.0005
 6148SOL    HW120438   0.542   2.243   2.504 -0.7884 -1.5287  1.6795
 6148SOL    HW220439   0.544   2.170   2.372 -3.5118 -1.1127  1.3598
 6149SOL     OW20440   7.165   3.901   1.656 -0.6329 -0.2465 -0.1212
 6149SOL    HW120441   7.187   3.892   1.563  1.0703  1.0331  0.0990
 6149SOL    HW220442   7.135   3.814   1.682 -1.9692 -0.4282 -2.0373
 6150SOL     OW20443   7.353   7.672   1.525 -0.0010  0.0591 -0.6935
 6150SOL    HW120444   7.307   7.708   1.449 -0.9293  0.1537 -0.1032
 6150SOL    HW220445   7.320   7.722   1.600  0.8045 -0.1167 -0.2011
 6151SOL     OW20446   2.256   6.435   2.730 -0.3102 -0.0102 -0.1621
 6151SOL    HW120447   2.267   6.353   2.778 -0.6543 -0.0673 -0.1777
 6151SOL    HW220448   2.322   6.432   2.661 -0.9304 -0.6916 -0.7336
 6152SOL     OW20449   3.145   8.284   8.111 -0.3990  0.3297  0.2848
 6152SOL    HW120450   3.232   8.249   8.130 -0.0523  1.7315  1.5212
 6152SOL    HW220451   3.161   8.363   8.059 -0.8809  0.8652  0.9247
 6153SOL     OW20452   1.144   7.176   1.448  0.0802  0.5266 -0.6410
 6153SOL    HW120453   1.127   7.269   1.434 -0.0520  0.6562  0.3038
 6153SOL    HW220454   1.083   7.131   1.390 -2.3606  1.0003  1.3807
 6154SOL     OW20455   6.917   2.566   0.690 -0.4759 -0.5611  0.3089
 6154SOL    HW120456   7.000   2.595   0.654 -0.8995  1.3096  0.7287
 6154SOL    HW220457   6.881   2.508   0.623 -0.4590  1.4511 -1.5756
 6155SOL     OW20458   4.369   2.098   8.481 -0.1652 -0.2972  1.0939
 6155SOL    HW120459   4.399   2.131   8.397  0.0270 -0.7700  0.9721
 6155SOL    HW220460   4.386   2.170   8.542 -1.5680  0.5674  0.5073
 6156SOL     OW20461   5.706   7.614   1.748 -0.6169  0.4315  0.0007
 6156SOL    HW120462   5.791   7.575   1.730 -1.0107  0.3280 -1.7819
 6156SOL    HW220463   5.723   7.708   1.753 -0.3547  0.3850 -0.0031
 6157SOL     OW20464   7.969   5.995   3.519 -0.2623  0.2241  0.1647
 6157SOL    HW120465   7.979   6.060   3.588 -0.2702  1.1033 -0.6414
 6157SOL    HW220466   7.875   5.985   3.507 -0.2664 -0.2088  0.5295
 6158SOL     OW20467   5.084   7.146   1.369 -0.6048 -0.1378 -0.7091
 6158SOL    HW120468   5.100   7.093   1.291 -1.4555  0.9197 -1.6340
 6158SOL    HW220469   5.102   7.087   1.442  1.1365 -0.8734 -1.6837
 6159SOL     OW20470   5.075   8.495   2.080 -0.1911 -0.0948 -0.4639
 6159SOL    HW120471   5.169   8.514   2.079 -0.1340 -0.3565 -1.7481
 6159SOL    HW220472   5.070   8.402   2.056 -0.7354 -0.3276  0.5129
 6160SOL     OW20473   4.500   8.391   7.375  0.2883  0.1315  0.5862
 6160SOL    HW120474   4.536   8.320   7.322  1.9450  0.1108  1.6824
 6160SOL    HW220475   4.485   8.351   7.461 -2.2725  0.1885  0.2474
 6161SOL     OW20476   6.195   3.126   8.133 -0.5751  0.2357  0.2908
 6161SOL    HW120477   6.181   3.048   8.080 -0.6039  0.9764 -0.8139
 6161SOL    HW220478   6.129   3.120   8.202 -0.6353 -0.6666  0.1688
 6162SOL     OW20479   7.019   1.202   7.562  0.0999 -0.8745  0.0443
 6162SOL    HW120480   7.057   1.114   7.560 -0.5239 -1.2815  2.3744
 6162SOL    HW220481   6.939   1.194   7.511  1.4630 -0.8319 -2.2391
 6163SOL     OW20482   8.873   5.871   4.371 -0.3483  0.2213  0.0992
 6163SOL    HW120483   8.928   5.938   4.332  0.3868  0.1370  0.9545
 6163SOL    HW220484   8.867   5.896   4.464  1.5941 -1.9489  0.8871
 6164SOL     OW20485   6.592   1.331   6.883  0.1155 -0.0958  0.5730
 6164SOL    HW120486   6.598   1.380   6.964 -1.8592  1.7682 -0.2964
 6164SOL    HW220487   6.533   1.383   6.828  0.6745 -1.7310 -1.7225
 6165SOL     OW20488   7.072   7.683   5.478  1.0256 -0.0568  0.8823
 6165SOL    HW120489   6.980   7.698   5.456  1.0212 -1.6017 -0.3854
 6165SOL    HW220490   7.071   7.659   5.570 -0.0218 -1.1933  0.6026
 6166SOL     OW20491   0.443   7.190   4.892 -0.2747 -0.0270 -0.4154
 6166SOL    HW120492   0.403   7.128   4.832 -0.4323 -0.9412  0.6091
 6166SOL    HW220493   0.481   7.136   4.962 -0.2243  1.0023  0.3891
 6167SOL     OW20494   5.338   1.875   2.072 -0.3538 -0.1580  0.3734
 6167SOL    HW120495   5.303   1.893   2.159 -2.4283 -1.4947 -0.1120
 6167SOL    HW220496   5.326   1.956   2.023  0.4569  0.4718  1.1903
 6168SOL     OW20497   7.437   3.538   2.755 -0.0752 -0.4618 -0.5911
 6168SOL    HW120498   7.508   3.490   2.713 -1.7653 -2.4892 -1.3146
 6168SOL    HW220499   7.449   3.523   2.848  0.8289 -0.1880 -0.6576
 6169SOL     OW20500   5.086   6.772   6.191 -0.2236  0.0287  0.8570
 6169SOL    HW120501   5.077   6.711   6.264  1.2252 -0.3966  0.7048
 6169SOL    HW220502   5.111   6.717   6.117 -0.0644  0.6627  0.4334
 6170SOL     OW20503   5.140   3.293   2.941 -0.0929 -0.0264 -0.2670
 6170SOL    HW120504   5.220   3.263   2.984 -0.5560 -2.2457 -0.8272
 6170SOL    HW220505   5.079   3.221   2.952 -2.1655  1.7228  0.4052
 6171SOL     OW20506   2.474   0.903   4.179 -0.0434 -0.0558 -0.4342
 6171SOL    HW120507   2.502   0.822   4.222 -1.4435 -1.8966 -2.7189
 6171SOL    HW220508   2.538   0.916   4.109 -0.0526  0.6179 -0.3205
 6172SOL     OW20509   7.210   1.884   8.127 -0.0539 -0.8532 -0.1590
 6172SOL    HW120510   7.300   1.863   8.153 -0.0095 -1.5333 -0.8342
 6172SOL    HW220511   7.175   1.935   8.201  1.1632  0.1920 -0.2753
 6173SOL     OW20512   0.463   5.623   5.810  0.1659  0.2953 -0.1164
 6173SOL    HW120513   0.406   5.598   5.883  2.2466  0.1729  1.5608
 6173SOL    HW220514   0.442   5.561   5.740 -0.9419 -0.4428  0.8472
 6174SOL     OW20515   5.707   7.493   6.522  0.2211  0.0907  0.3315
 6174SOL    HW120516   5.721   7.431   6.450  0.3941 -0.2373  0.6488
 6174SOL    HW220517   5.653   7.562   6.483  1.5582  0.6994 -0.5384
 6175SOL     OW20518   8.708   2.009   3.768  0.2579  0.0340  0.0998
 6175SOL    HW120519   8.741   2.024   3.857  1.3552  1.6800 -0.5261
 6175SOL    HW220520   8.707   1.914   3.758 -0.3421 -0.2074  2.0248
 6176SOL     OW20521   8.416   2.781   6.255 -0.1115  0.2943 -0.1491
 6176SOL    HW120522   8.387   2.806   6.168 -1.8858  1.0725  0.6281
 6176SOL    HW220523   8.461   2.858   6.288  1.7010 -0.4279 -0.8087
 6177SOL     OW20524   1.700   4.117   2.542  0.2274  0.1314  0.1607
 6177SOL    HW120525   1.713   4.057   2.470  1.5838  0.0524  0.4419
 6177SOL    HW220526   1.781   4.111   2.594  0.1523  1.7220  0.5300
 6178SOL     OW20527   7.536   0.500   1.038 -0.4754 -0.6740 -0.4906
 6178SOL    HW120528   7.613   0.484   1.092 -0.5018 -0.5526 -0.4158
 6178SOL    HW220529   7.498   0.413   1.022  1.1730 -1.0568 -2.7558
 6179SOL     OW20530   6.651   5.438   6.519 -0.1764 -0.0460  0.3518
 6179SOL    HW120531   6.688   5.391   6.593  1.2293  0.1052 -0.2174
 6179SOL    HW220532   6.726   5.482   6.479 -1.3616  2.4731  0.6904
 6180SOL     OW20533   6.083   6.844   4.001  0.0427  0.7158 -0.1883
 6180SOL    HW120534   6.156   6.894   4.037  0.4577 -0.3786  0.5414
 6180SOL    HW220535   6.042   6.804   4.078  0.6865 -1.3316 -0.8405
 6181SOL     OW20536   7.512   7.124   6.849 -0.5730  0.5904  0.8120
 6181SOL    HW120537   7.578   7.166   6.904 -1.4263  1.2323  1.3684
 6181SOL    HW220538   7.431   7.133   6.898 -1.0066 -0.5906  0.3455
 6182SOL     OW20539   2.816   7.125   0.298  0.1705 -0.4207  0.3411
 6182SOL    HW120540   2.899   7.155   0.336  0.6550  1.8251 -2.1874
 6182SOL    HW220541   2.839   7.101   0.208 -2.1223  1.9962 -1.0303
 6183SOL     OW20542   1.682   3.472   7.648  0.1844  0.2486  0.3104
 6183SOL    HW120543   1.588   3.461   7.660  0.6737 -1.4720  3.5281
 6183SOL    HW220544   1.704   3.412   7.577 -1.1738  1.2440 -1.0282
 6184SOL     OW20545   7.252   7.460   1.026 -0.0873 -0.2482 -0.1436
 6184SOL    HW120546   7.292   7.427   1.107 -0.5374 -1.5284 -0.4170
 6184SOL    HW220547   7.318   7.443   0.959  0.6978  1.7126  0.0599
 6185SOL     OW20548   4.266   2.054   2.586  0.2450 -0.0649 -0.2485
 6185SOL    HW120549   4.343   2.092   2.545  0.0376  0.4586 -0.1578
 6185SOL    HW220550   4.193   2.078   2.528 -0.1076  1.0207  0.5999
 6186SOL     OW20551   7.084   2.871   2.633  0.5035  0.1023 -0.0487
 6186SOL    HW120552   7.141   2.916   2.695 -0.4196 -0.6075  1.3538
 6186SOL    HW220553   7.044   2.800   2.683 -1.7093  0.6365 -0.9362
 6187SOL     OW20554   6.923   1.341   6.233 -0.0407  0.0301 -0.0383
 6187SOL    HW120555   6.836   1.372   6.256 -0.6033 -0.7096 -1.1215
 6187SOL    HW220556   6.910   1.287   6.155  1.3689 -0.1759 -0.1556
 6188SOL     OW20557   7.784   5.163   8.132 -0.6596 -0.1658 -0.0239
 6188SOL    HW120558   7.791   5.257   8.115  1.4051  0.2469  2.5420
 6188SOL    HW220559   7.852   5.124   8.078 -1.0836 -0.1303 -0.5921
 6189SOL     OW20560   1.791   7.263   4.540  0.2963  0.0408 -0.0056
 6189SOL    HW120561   1.706   7.225   4.558  0.5332  0.3496  2.0017
 6189SOL    HW220562   1.786   7.352   4.576  1.2085  0.3384 -0.5722
 6190SOL     OW20563   2.502   1.552   4.353 -0.8578 -0.8173 -0.5993
 6190SOL    HW120564   2.420   1.597   4.332 -0.9649 -0.9672 -0.5001
 6190SOL    HW220565   2.523   1.502   4.275  0.1359  0.6984 -1.3577
 6191SOL     OW20566   7.594   7.249   0.920  0.1122  0.0793  0.2539
 6191SOL    HW120567   7.600   7.272   0.827 -2.4118 -1.6267 -0.4379
 6191SOL    HW220568   7.570   7.157   0.920 -0.3150  0.1371  2.5929
 6192SOL     OW20569   0.274   8.684   4.208  0.3348 -0.3319  0.4748
 6192SOL    HW120570   0.206   8.639   4.158 -0.1481 -0.8829  1.5878
 6192SOL    HW220571   0.261   8.777   4.190  0.3999 -0.5255 -0.6770
 6193SOL     OW20572   2.620   3.216   7.164 -0.3382  0.2974  0.1442
 6193SOL    HW120573   2.661   3.204   7.078 -1.5122  0.0443 -0.4073
 6193SOL    HW220574   2.629   3.131   7.207  0.4887  0.5025  0.3881
 6194SOL     OW20575   4.102   2.111   8.543 -0.3776  0.5047  0.2366
 6194SOL    HW120576   4.049   2.101   8.464 -1.5827 -1.4179  1.2122
 6194SOL    HW220577   4.187   2.072   8.521 -0.4181  0.7494 -0.3603
 6195SOL     OW20578   6.278   7.856   1.346  0.3083  0.0315 -0.2467
 6195SOL    HW120579   6.243   7.768   1.359 -0.1926  0.1603 -0.7135
 6195SOL    HW220580   6.223   7.913   1.399  0.1017  0.1711 -0.6052
 6196SOL     OW20581   7.178   2.300   4.647 -0.4112 -0.6648 -0.2544
 6196SOL    HW120582   7.267   2.267   4.631 -0.1148  0.6740 -1.6545
 6196SOL    HW220583   7.144   2.320   4.559 -0.8231  1.9609  0.4264
 6197SOL     OW20584   6.696   5.911   0.202 -0.4755 -0.4810 -0.0410
 6197SOL    HW120585   6.758   5.838   0.207 -0.7760 -0.7454 -0.2201
 6197SOL    HW220586   6.730   5.966   0.131  0.8793  0.6042  1.3633
 6198SOL     OW20587   2.990   4.142   6.495 -0.2961 -0.1826  0.3100
 6198SOL    HW120588   3.062   4.142   6.558  1.0524 -2.0319 -1.1200
 6198SOL    HW220589   2.987   4.231   6.461  1.9550 -0.2713 -0.2364
 6199SOL     OW20590   6.346   2.656   1.128  0.1669  0.2100  0.2148
 6199SOL    HW120591   6.362   2.741   1.169 -0.1387  0.9766 -1.1812
 6199SOL    HW220592   6.256   2.663   1.094  0.7193 -0.0123 -1.3724
 6200SOL     OW20593   1.448   4.817   5.703  0.1378 -0.1063 -0.2163
 6200SOL    HW120594   1.365   4.845   5.742  0.1897 -1.1365  0.6847
 6200SOL    HW220595   1.512   4.881   5.735 -0.2958  0.7448 -0.9877
 6201SOL     OW20596   8.739   6.371   1.802  0.2047  0.1553  0.2054
 6201SOL    HW120597   8.690   6.447   1.770 -0.3566  0.5611  1.9170
 6201SOL    HW220598   8.827   6.405   1.820  0.2153  0.1785  0.1095
 6202SOL     OW20599   6.940   3.054   6.886  0.2130  0.6375  0.1476
 6202SOL    HW120600   6.995   3.132   6.895 -0.3603  1.2859 -1.6176
 6202SOL    HW220601   6.954   3.006   6.968  1.7196  1.8480  0.6587
 6203SOL     OW20602   6.632   7.128   4.615  0.4273  0.1258 -0.3441
 6203SOL    HW120603   6.623   7.104   4.522 -1.1425 -1.4463  0.1522
 6203SOL    HW220604   6.712   7.180   4.619 -0.4445  1.8288 -2.8737
 6204SOL     OW20605   5.445   2.905   3.293 -0.6483  0.2340 -0.1808
 6204SOL    HW120606   5.515   2.839   3.289 -0.6459  0.2852 -1.8151
 6204SOL    HW220607   5.473   2.973   3.231 -1.2558  1.1857  0.5465
 6205SOL     OW20608   2.734   0.143   4.680 -0.2133  0.2373  0.0514
 6205SOL    HW120609   2.708   0.052   4.697  1.3829 -0.3720 -0.6176
 6205SOL    HW220610   2.826   0.138   4.654  0.2748  2.1773  1.1490
 6206SOL     OW20611   0.897   1.839   2.778 -0.0055 -0.0294 -0.3461
 6206SOL    HW120612   0.840   1.904   2.736  0.1744  0.1083 -0.3783
 6206SOL    HW220613   0.986   1.868   2.758  0.0962 -1.2219 -1.7998
 6207SOL     OW20614   0.313   7.309   6.927  0.1576  0.0424  0.3770
 6207SOL    HW120615   0.389   7.339   6.978  0.7671 -0.6077 -0.1234
 6207SOL    HW220616   0.302   7.217   6.954 -2.0861  0.7983  2.3821
 6208SOL     OW20617   3.997   2.754   1.079  0.6574  0.2535 -0.6383
 6208SOL    HW120618   4.042   2.767   0.996 -0.0012 -1.2721 -1.2786
 6208SOL    HW220619   3.910   2.791   1.066  0.4260 -0.3232 -0.7774
 6209SOL     OW20620   5.132   0.435   3.704  0.5893  0.4372 -0.1663
 6209SOL    HW120621   5.204   0.450   3.765  0.4087  0.2210  0.1030
 6209SOL    HW220622   5.174   0.399   3.626  0.5323 -2.3921  0.9806
 6210SOL     OW20623   2.044   8.271   3.945 -0.2739 -0.8344  0.0791
 6210SOL    HW120624   1.978   8.277   4.014 -1.0908 -0.2938 -0.7232
 6210SOL    HW220625   2.079   8.359   3.937  2.4724 -1.5498  2.2446
 6211SOL     OW20626   8.095   7.058   0.123  0.0645  0.4330 -0.3413
 6211SOL    HW120627   8.174   7.004   0.130 -0.5204 -0.4322 -0.2577
 6211SOL    HW220628   8.113   7.119   0.052  0.4956 -0.3022 -0.8690
 6212SOL     OW20629   8.019   1.633   1.018 -0.1837 -0.9824 -0.3772
 6212SOL    HW120630   8.093   1.573   1.005 -1.1304 -1.7120 -2.8733
 6212SOL    HW220631   8.018   1.687   0.940 -1.9193 -0.5789 -0.1016
 6213SOL     OW20632   4.304   2.409   5.787  0.1122 -0.3901  0.3093
 6213SOL    HW120633   4.320   2.500   5.761 -0.3311  0.1444  1.8391
 6213SOL    HW220634   4.209   2.403   5.798  0.1117 -1.1236 -0.0240
 6214SOL     OW20635   2.027   1.734   8.084 -0.3784  0.4301 -0.3880
 6214SOL    HW120636   1.955   1.780   8.126  1.6196  0.2931  3.6260
 6214SOL    HW220637   2.097   1.799   8.077  0.8491 -0.7093  0.7978
 6215SOL     OW20638   0.150   6.506   8.025  0.3321 -0.0073  0.2191
 6215SOL    HW120639   0.224   6.518   8.085  0.2609 -1.7608  0.7037
 6215SOL    HW220640   0.166   6.570   7.955  1.2862  0.9536  1.2694
 6216SOL     OW20641   5.391   0.105   3.591  0.4257  0.2709 -0.2001
 6216SOL    HW120642   5.393   0.092   3.496 -0.2392  0.7346 -0.2849
 6216SOL    HW220643   5.440   0.186   3.605 -0.0087  0.5391 -0.2144
 6217SOL     OW20644   2.700   1.540   5.033  0.6211 -0.0883 -0.4825
 6217SOL    HW120645   2.731   1.493   5.110  0.7108 -0.6434 -0.8463
 6217SOL    HW220646   2.605   1.527   5.033  0.7250 -0.9618 -1.0107
 6218SOL     OW20647   6.946   2.921   4.794  0.0067 -0.7532  0.0487
 6218SOL    HW120648   6.949   2.987   4.863  0.2552 -0.5416 -0.1615
 6218SOL    HW220649   6.881   2.857   4.824  0.4849 -0.9345  0.7234
 6219SOL     OW20650   3.898   1.347   5.620  0.0378  0.3386  0.0843
 6219SOL    HW120651   3.890   1.426   5.567  4.6425  0.2229 -1.2393
 6219SOL    HW220652   3.908   1.379   5.710  2.1976  1.4627 -0.4745
 6220SOL     OW20653   7.204   3.385   1.696  0.2325  0.2835 -0.6438
 6220SOL    HW120654   7.256   3.351   1.623  0.5716 -0.1593 -0.2031
 6220SOL    HW220655   7.260   3.372   1.772 -1.0290 -1.3806  0.0330
 6221SOL     OW20656   6.769   6.046   7.917 -0.1492  0.4574 -0.5048
 6221SOL    HW120657   6.854   6.078   7.885  0.3756 -0.5574 -0.1590
 6221SOL    HW220658   6.742   5.981   7.852  0.3634 -0.7596  0.4580
 6222SOL     OW20659   0.670   5.783   3.212  0.6660 -0.1643 -0.0652
 6222SOL    HW120660   0.740   5.809   3.152  0.1829 -0.8467 -0.9564
 6222SOL    HW220661   0.694   5.695   3.240  0.1320 -0.4356 -0.4439
 6223SOL     OW20662   7.927   7.765   3.532  0.4922 -0.5592 -0.0071
 6223SOL    HW120663   7.889   7.848   3.560  0.2225 -1.1098  1.3854
 6223SOL    HW220664   8.015   7.788   3.502  0.9199  0.0929  1.6137
 6224SOL     OW20665   5.857   7.505   4.249 -0.1016 -0.2507 -0.3521
 6224SOL    HW120666   5.801   7.428   4.263  1.7683 -1.6265 -0.1008
 6224SOL    HW220667   5.946   7.470   4.247  0.6354  1.3716 -4.1217
 6225SOL     OW20668   0.213   4.572   2.352 -0.2268  0.2718 -0.1232
 6225SOL    HW120669   0.261   4.523   2.286 -0.5727 -2.5695  1.5700
 6225SOL    HW220670   0.126   4.585   2.314 -0.3348 -1.0865 -0.3757
 6226SOL     OW20671   3.512   0.538   8.113 -0.9876 -0.0733 -0.3544
 6226SOL    HW120672   3.541   0.550   8.204 -1.7680  0.3085 -0.1485
 6226SOL    HW220673   3.582   0.486   8.073 -1.3616 -1.6004  0.8737
 6227SOL     OW20674   1.926   6.720   2.540 -0.0519 -0.5777 -0.6296
 6227SOL    HW120675   1.929   6.763   2.454  0.4586  0.3240 -0.1822
 6227SOL    HW220676   1.844   6.750   2.579 -0.3923 -1.1652 -0.8859
 6228SOL     OW20677   3.959   7.649   7.507  0.0152 -0.2616 -0.1223
 6228SOL    HW120678   3.931   7.652   7.415 -0.1933 -1.3112 -0.1033
 6228SOL    HW220679   4.008   7.568   7.515  1.1861  0.4728  0.3943
 6229SOL     OW20680   2.109   4.461   0.868  0.4878  0.0492 -0.3763
 6229SOL    HW120681   2.016   4.470   0.888  0.7141 -0.0270  0.7435
 6229SOL    HW220682   2.121   4.368   0.850  0.1811  0.2041 -1.4407
 6230SOL     OW20683   1.577   3.817   4.553 -0.2361 -0.6219 -0.4478
 6230SOL    HW120684   1.553   3.900   4.594  0.1122 -0.6256 -0.2291
 6230SOL    HW220685   1.501   3.794   4.500 -0.3802 -0.2196 -0.4243
 6231SOL     OW20686   3.664   0.945   1.886  0.2079  0.4619  0.7820
 6231SOL    HW120687   3.605   1.014   1.915  0.5441  0.8016  0.6583
 6231SOL    HW220688   3.623   0.864   1.917 -0.3601  0.6907  0.6265
 6232SOL     OW20689   1.614   1.361   5.274 -0.4780  0.4030  0.3812
 6232SOL    HW120690   1.531   1.407   5.264 -1.5750 -1.5819 -0.2456
 6232SOL    HW220691   1.618   1.302   5.198  0.0238 -1.6955  1.9393
 6233SOL     OW20692   7.769   0.457   1.695 -0.0247  0.3070 -0.4159
 6233SOL    HW120693   7.730   0.450   1.608 -1.3175  1.3192  0.0590
 6233SOL    HW220694   7.814   0.541   1.693 -0.2438  0.4323 -0.0291
 6234SOL     OW20695   2.487   2.394   4.262  0.2838 -0.0432  0.5804
 6234SOL    HW120696   2.538   2.438   4.330  1.1689 -1.3562  0.7952
 6234SOL    HW220697   2.552   2.362   4.200 -0.4456  0.2037 -0.3243
 6235SOL     OW20698   8.735   3.659   0.276 -0.1264  0.1874  0.4977
 6235SOL    HW120699   8.654   3.635   0.230 -0.6454  0.9647  0.9657
 6235SOL    HW220700   8.762   3.741   0.233  1.1840 -0.7654 -0.5656
 6236SOL     OW20701   4.809   7.980   1.561 -0.1428 -0.2004 -0.2646
 6236SOL    HW120702   4.776   8.054   1.612 -0.2071 -0.6535  0.3552
 6236SOL    HW220703   4.887   8.013   1.517 -0.2692  0.2805 -0.1255
 6237SOL     OW20704   1.774   3.703   2.095  0.4076  0.1060 -0.1468
 6237SOL    HW120705   1.725   3.718   2.176 -0.1261  1.5538 -0.6902
 6237SOL    HW220706   1.864   3.687   2.124  0.9817  3.8349  0.7437
 6238SOL     OW20707   3.748   1.971   7.305  0.0423 -0.5138 -0.2139
 6238SOL    HW120708   3.707   1.910   7.244  0.4673 -1.3372  0.3067
 6238SOL    HW220709   3.729   2.057   7.269 -0.4943 -0.9537 -1.0118
 6239SOL     OW20710   7.444   3.672   8.781 -0.0846 -0.4145 -0.2428
 6239SOL    HW120711   7.499   3.629   8.846  0.4693  0.7603  0.1014
 6239SOL    HW220712   7.437   3.763   8.812 -3.1305 -0.7290  0.3401
 6240SOL     OW20713   7.337   6.779   6.465  0.1533  0.1531 -0.1318
 6240SOL    HW120714   7.400   6.765   6.395 -1.2324 -2.4176 -0.9770
 6240SOL    HW220715   7.277   6.705   6.460 -1.5558  1.2252  2.1460
 6241SOL     OW20716   5.851   5.236   2.191  0.1895  0.2430  0.2121
 6241SOL    HW120717   5.939   5.219   2.157  0.0425  0.1767 -0.1320
 6241SOL    HW220718   5.852   5.196   2.279  0.5535  0.3838  0.2748
 6242SOL     OW20719   3.122   8.489   7.617 -0.0564 -0.0386  0.3637
 6242SOL    HW120720   3.063   8.481   7.691  0.4014 -0.9237  0.6529
 6242SOL    HW220721   3.068   8.469   7.540 -0.0294 -1.3744  0.6706
 6243SOL     OW20722   3.376   5.172   7.956  0.0166 -0.1001  0.1519
 6243SOL    HW120723   3.417   5.256   7.935  1.0329 -0.6359 -0.0590
 6243SOL    HW220724   3.340   5.141   7.873 -0.8018  0.3511  0.3287
 6244SOL     OW20725   4.290   0.722   6.437 -0.1845 -0.2791  0.0694
 6244SOL    HW120726   4.307   0.644   6.384  1.5054 -1.0328  1.6015
 6244SOL    HW220727   4.258   0.688   6.521 -0.6556  0.7561  0.3284
 6245SOL     OW20728   6.485   8.750   3.618  0.0515  0.6985 -0.4518
 6245SOL    HW120729   6.390   8.745   3.611 -0.0119 -1.1040  0.9898
 6245SOL    HW220730   6.501   8.827   3.673 -0.9248 -1.5719  3.3477
 6246SOL     OW20731   6.561   0.250   6.875 -0.0888  0.1841 -0.5258
 6246SOL    HW120732   6.486   0.207   6.836  1.2267 -0.6143 -2.2899
 6246SOL    HW220733   6.581   0.322   6.816  0.2549  0.7026  0.1974
 6247SOL     OW20734   7.149   8.439   2.039 -0.1014  0.3643  0.3701
 6247SOL    HW120735   7.230   8.442   2.090 -0.9447 -0.8956  1.8574
 6247SOL    HW220736   7.168   8.492   1.962  2.5934 -0.9757 -0.0104
 6248SOL     OW20737   4.117   7.149   6.457  0.1754 -0.1719 -0.4105
 6248SOL    HW120738   4.165   7.184   6.381 -1.2150  2.6425 -0.1371
 6248SOL    HW220739   4.025   7.166   6.437 -0.3616 -1.1593  1.0918
 6249SOL     OW20740   1.940   2.803   3.758 -0.1705 -0.8570 -0.1186
 6249SOL    HW120741   1.851   2.838   3.756 -0.4412 -1.5672 -1.2165
 6249SOL    HW220742   1.937   2.725   3.701  1.5275  0.0324 -1.5190
 6250SOL     OW20743   6.227   6.148   8.424 -0.4010  0.4341  0.0377
 6250SOL    HW120744   6.168   6.074   8.410  0.5789 -0.2011 -0.8570
 6250SOL    HW220745   6.308   6.109   8.457  0.9410  0.7786 -2.5325
 6251SOL     OW20746   8.652   1.135   7.839 -0.4225  0.0179  0.2220
 6251SOL    HW120747   8.685   1.154   7.927 -2.1487 -0.0797  0.9513
 6251SOL    HW220748   8.655   1.040   7.832 -0.5917  0.0033  0.3257
 6252SOL     OW20749   1.994   3.256   7.760 -0.3744  0.1686  0.4742
 6252SOL    HW120750   2.039   3.189   7.812  3.6951  1.4869 -0.9189
 6252SOL    HW220751   2.008   3.337   7.808  0.1677  0.8569 -0.8034
 6253SOL     OW20752   5.031   1.151   3.232 -0.5883  0.2646  0.3624
 6253SOL    HW120753   4.984   1.233   3.218 -2.4411 -0.7317  0.4245
 6253SOL    HW220754   4.995   1.116   3.314  0.8178 -0.1885  0.8092
 6254SOL     OW20755   5.790   2.298   0.595 -0.1406 -0.2440 -0.0247
 6254SOL    HW120756   5.827   2.303   0.507  1.2217  2.3428  0.5724
 6254SOL    HW220757   5.703   2.337   0.586  0.2324  0.5947 -0.1719
 6255SOL     OW20758   4.677   2.927   1.930  0.0804  0.3394 -0.3922
 6255SOL    HW120759   4.679   3.005   1.985 -0.7203  0.3834 -0.4184
 6255SOL    HW220760   4.681   2.854   1.992  0.7002  0.3967 -0.3613
 6256SOL     OW20761   7.897   2.836   5.957  0.4308 -0.0785 -0.5571
 6256SOL    HW120762   7.947   2.900   5.907  0.3372  0.6209  0.2219
 6256SOL    HW220763   7.955   2.810   6.028  0.2239 -0.3489 -0.4864
 6257SOL     OW20764   8.246   4.940   5.995 -0.1490  0.4803  0.6114
 6257SOL    HW120765   8.249   4.880   5.920  1.0028  1.4315 -0.1216
 6257SOL    HW220766   8.219   5.024   5.958  0.9224  1.0848  1.1714
 6258SOL     OW20767   4.099   4.177   5.103 -0.4153 -0.3690 -0.4853
 6258SOL    HW120768   4.040   4.221   5.164  0.4291 -1.5174  1.2226
 6258SOL    HW220769   4.042   4.120   5.051 -0.9218 -0.9023  0.6227
 6259SOL     OW20770   2.561   6.892   7.935 -0.1196  0.4119  0.1771
 6259SOL    HW120771   2.493   6.920   7.873 -1.0472  0.6435  1.2550
 6259SOL    HW220772   2.628   6.961   7.931  0.3231 -0.0815 -1.2836
 6260SOL     OW20773   4.043   4.209   8.485 -0.2148  0.3499 -0.2019
 6260SOL    HW120774   4.077   4.225   8.397 -0.8465 -0.3383 -0.5836
 6260SOL    HW220775   3.967   4.267   8.491  0.4016  1.1274  0.2680
 6261SOL     OW20776   1.808   0.591   7.240  0.1466 -0.4231  0.0608
 6261SOL    HW120777   1.761   0.515   7.272  0.0443  0.0819  1.1531
 6261SOL    HW220778   1.746   0.635   7.181 -0.2689 -0.4843  0.4494
 6262SOL     OW20779   2.882   7.485   8.124 -0.0515  0.0949  0.5897
 6262SOL    HW120780   2.836   7.422   8.180  0.7412 -0.6279  0.4567
 6262SOL    HW220781   2.928   7.430   8.060 -2.2772  0.8960 -1.8943
 6263SOL     OW20782   5.185   8.207   5.757 -0.0410  0.1312 -0.3378
 6263SOL    HW120783   5.199   8.258   5.677 -0.9680  0.0183 -0.5804
 6263SOL    HW220784   5.142   8.268   5.818  1.9961  0.6756  0.6363
 6264SOL     OW20785   7.398   0.674   5.566  0.3879  0.0604  0.9179
 6264SOL    HW120786   7.409   0.588   5.524 -0.1270  0.1977  0.4889
 6264SOL    HW220787   7.406   0.737   5.495 -2.5372  0.2022  0.5896
 6265SOL     OW20788   7.890   2.494   6.824 -0.0126  0.4236  0.0156
 6265SOL    HW120789   7.881   2.537   6.739 -0.6682  0.2980  0.0136
 6265SOL    HW220790   7.922   2.562   6.882 -1.3607  1.0292  0.0909
 6266SOL     OW20791   5.045   1.794   1.102 -0.4246 -0.2723 -0.3453
 6266SOL    HW120792   4.998   1.722   1.061 -0.3421  0.1718 -1.2436
 6266SOL    HW220793   5.127   1.755   1.132 -0.2465 -0.4968 -1.0988
 6267SOL     OW20794   5.303   1.999   2.737 -0.3100 -0.0482  0.0621
 6267SOL    HW120795   5.268   1.929   2.682 -0.6858 -0.3465  0.6642
 6267SOL    HW220796   5.384   2.025   2.693 -0.0085 -1.0624 -0.0323
 6268SOL     OW20797   2.598   0.319   6.766  0.1072  0.8062  0.6253
 6268SOL    HW120798   2.619   0.301   6.675  0.5651 -1.5087  1.1238
 6268SOL    HW220799   2.524   0.381   6.763 -0.3232  0.2383 -1.3001
 6269SOL     OW20800   5.894   0.720   8.265  0.1197 -0.2065 -0.0835
 6269SOL    HW120801   5.832   0.669   8.214 -1.4359  1.3714  0.1415
 6269SOL    HW220802   5.841   0.789   8.305  1.5615 -0.3972  2.3293
 6270SOL     OW20803   1.916   2.152   1.552  0.0934 -0.6495  0.0666
 6270SOL    HW120804   1.855   2.211   1.597  0.4215  0.2096 -0.5789
 6270SOL    HW220805   1.860   2.093   1.502 -0.2447 -1.0029  0.8364
 6271SOL     OW20806   8.845   4.808   8.173 -0.3367 -0.0688  0.0015
 6271SOL    HW120807   8.842   4.747   8.247  2.2093 -0.2139  0.0733
 6271SOL    HW220808   8.876   4.890   8.210 -0.5012  0.2907 -0.6467
 6272SOL     OW20809   0.110   3.220   5.467  0.1832  0.3613 -0.3706
 6272SOL    HW120810   0.079   3.222   5.557 -0.2076 -1.1311 -0.4489
 6272SOL    HW220811   0.085   3.134   5.434  1.5279  0.3508 -1.4818
 6273SOL     OW20812   2.367   4.333   1.818  0.5477 -0.2294 -0.9158
 6273SOL    HW120813   2.353   4.402   1.883  1.3608 -0.7648 -0.1541
 6273SOL    HW220814   2.303   4.352   1.750 -1.1337 -0.3032  0.5555
 6274SOL     OW20815   8.693   6.209   4.396 -0.2616  0.1472  0.3970
 6274SOL    HW120816   8.670   6.227   4.305 -0.7602 -0.4657  0.3924
 6274SOL    HW220817   8.762   6.271   4.417  1.1031 -0.8540 -0.9484
 6275SOL     OW20818   7.804   7.615   2.010  0.5749  0.3726 -0.2882
 6275SOL    HW120819   7.804   7.542   1.949 -0.2273 -0.9149  1.1967
 6275SOL    HW220820   7.808   7.693   1.954 -1.9722 -0.6609 -2.0599
 6276SOL     OW20821   0.129   1.933   3.259 -0.1550 -0.4031  0.2859
 6276SOL    HW120822   0.198   1.867   3.251  1.2843  1.1057 -0.3889
 6276SOL    HW220823   0.080   1.927   3.177  0.8292  0.2456 -0.3732
 6277SOL     OW20824   6.425   3.162   0.357  0.0467 -0.6074  0.1297
 6277SOL    HW120825   6.384   3.176   0.271  0.6563 -0.3977 -0.1370
 6277SOL    HW220826   6.463   3.247   0.379 -0.2593 -0.6172  0.6927
 6278SOL     OW20827   8.363   8.056   2.351 -0.1485 -0.1374  0.6616
 6278SOL    HW120828   8.378   8.132   2.408  2.5098 -0.1578  0.1112
 6278SOL    HW220829   8.445   8.007   2.355 -1.9077 -3.2682  1.2907
 6279SOL     OW20830   6.245   0.286   3.216  0.4858  0.3963  0.4048
 6279SOL    HW120831   6.250   0.242   3.132  1.0491  1.7076 -0.2769
 6279SOL    HW220832   6.314   0.246   3.269  1.6394  1.0801 -0.5265
 6280SOL     OW20833   3.297   2.277   1.752  0.5343 -0.0674  0.0449
 6280SOL    HW120834   3.228   2.219   1.721  0.4319 -0.1064  0.3416
 6280SOL    HW220835   3.260   2.320   1.829  1.6766 -1.9565  1.7687
 6281SOL     OW20836   8.494   5.778   4.593 -0.0299 -0.2203 -0.2042
 6281SOL    HW120837   8.511   5.829   4.515  0.0834 -1.2162 -0.8473
 6281SOL    HW220838   8.421   5.823   4.636  0.5383  0.8823 -0.3571
 6282SOL     OW20839   4.479   0.419   6.843 -0.1796 -0.2222 -0.1745
 6282SOL    HW120840   4.423   0.413   6.765 -1.2524  0.2411  0.5329
 6282SOL    HW220841   4.448   0.348   6.900 -2.0067  1.7039  1.4073
 6283SOL     OW20842   4.372   4.541   0.272 -0.0855 -0.2488 -0.6895
 6283SOL    HW120843   4.381   4.479   0.200  0.8470 -1.5522  0.4883
 6283SOL    HW220844   4.427   4.615   0.247  0.1448 -0.6355 -1.3656
 6284SOL     OW20845   8.786   6.918   3.386 -0.0701 -0.1739 -0.2146
 6284SOL    HW120846   8.777   6.943   3.294  1.7093 -1.1060 -0.7057
 6284SOL    HW220847   8.818   6.997   3.429 -2.7118  0.8474  0.0554
 6285SOL     OW20848   4.600   8.476   4.232  0.0781  0.0308 -0.1149
 6285SOL    HW120849   4.669   8.512   4.288  0.2549 -0.6704  0.1308
 6285SOL    HW220850   4.519   8.497   4.278  0.2943 -2.0757  1.3624
 6286SOL     OW20851   7.914   2.434   7.384  0.1035  0.6178  0.5130
 6286SOL    HW120852   7.909   2.360   7.323 -0.9672 -0.6087  2.0182
 6286SOL    HW220853   7.852   2.498   7.348  0.6940  0.6087 -0.5534
 6287SOL     OW20854   6.537   4.205   2.341  0.3140 -0.3604  0.0224
 6287SOL    HW120855   6.543   4.186   2.434  2.9737 -0.1619 -0.0329
 6287SOL    HW220856   6.571   4.294   2.331 -2.7997  0.9001 -0.8797
 6288SOL     OW20857   5.621   6.626   8.101  0.0718  0.3375 -0.3455
 6288SOL    HW120858   5.613   6.656   8.192  0.9767  0.7036 -0.3800
 6288SOL    HW220859   5.711   6.595   8.094 -0.6332 -1.8686 -0.4798
 6289SOL     OW20860   8.806   3.613   7.767  0.0196  0.1342  1.1020
 6289SOL    HW120861   8.744   3.635   7.837  0.2483  1.8553  0.8132
 6289SOL    HW220862   8.884   3.664   7.788 -0.3759  1.7701 -1.0890
 6290SOL     OW20863   6.479   4.556   3.825 -0.0682  0.1013 -0.2170
 6290SOL    HW120864   6.489   4.477   3.877 -0.8339  0.1272 -0.0167
 6290SOL    HW220865   6.560   4.562   3.775  0.4379 -0.2283  0.5470
 6291SOL     OW20866   0.751   3.175   7.818  0.0444 -0.3549 -0.0082
 6291SOL    HW120867   0.795   3.260   7.811 -1.1527  0.3668  0.8263
 6291SOL    HW220868   0.816   3.118   7.859  1.1822 -0.1258 -1.4039
 6292SOL     OW20869   7.293   3.432   3.780 -0.2260 -0.0924  0.3691
 6292SOL    HW120870   7.377   3.441   3.825 -0.3533 -4.0743  1.7686
 6292SOL    HW220871   7.248   3.515   3.797  2.5435  1.3359  1.3850
 6293SOL     OW20872   6.500   5.806   8.169  0.0381 -0.1613 -0.2262
 6293SOL    HW120873   6.451   5.788   8.249  1.0936  0.6816  0.6624
 6293SOL    HW220874   6.501   5.723   8.121 -1.1685 -0.5062  0.3185
 6294SOL     OW20875   8.509   7.541   5.686  0.0738 -0.1218  0.0174
 6294SOL    HW120876   8.530   7.610   5.748  0.6842 -1.4749  1.3961
 6294SOL    HW220877   8.420   7.515   5.707  1.0232 -2.0951  1.9254
 6295SOL     OW20878   4.273   6.486   2.274  0.0690  0.1471 -0.2903
 6295SOL    HW120879   4.186   6.461   2.241 -0.0469 -1.3247  1.0012
 6295SOL    HW220880   4.323   6.405   2.274  0.2928  0.2108  2.3206
 6296SOL     OW20881   0.910   8.865   1.856 -0.0069  0.4281 -0.4373
 6296SOL    HW120882   0.840   8.805   1.880  1.1417 -0.3226  1.1965
 6296SOL    HW220883   0.869   8.926   1.795 -1.6909 -0.8609 -0.6619
 6297SOL     OW20884   2.379   0.566   2.782 -0.0459  0.0795 -0.0174
 6297SOL    HW120885   2.399   0.481   2.821  2.6417  0.7512  0.3001
 6297SOL    HW220886   2.284   0.566   2.769 -0.3845 -2.1098  1.9327
 6298SOL     OW20887   1.307   3.362   5.272  0.3431 -0.1839 -0.0056
 6298SOL    HW120888   1.379   3.344   5.332 -0.2468  1.4682  1.2891
 6298SOL    HW220889   1.239   3.298   5.296  0.3479  0.0605  0.7052
 6299SOL     OW20890   1.762   8.121   5.711  0.1655 -0.1138  0.5037
 6299SOL    HW120891   1.721   8.089   5.631 -0.4794 -2.5782  1.7161
 6299SOL    HW220892   1.849   8.080   5.712 -0.0688 -0.6263  1.3274
 6300SOL     OW20893   5.992   2.153   1.481  0.2503 -0.5319  0.0044
 6300SOL    HW120894   5.904   2.189   1.483 -0.1312 -1.4546  1.4220
 6300SOL    HW220895   5.979   2.058   1.479  1.2204 -0.6662 -1.3419
 6301SOL     OW20896   5.228   5.452   4.108 -0.1511 -0.0622  0.8325
 6301SOL    HW120897   5.242   5.482   4.018 -0.9481  1.7089  1.2443
 6301SOL    HW220898   5.190   5.528   4.152 -0.7818 -1.2451  2.4023
 6302SOL     OW20899   6.425   4.039   4.125  0.3860 -0.1297  0.3519
 6302SOL    HW120900   6.405   4.039   4.031  2.4414 -1.8412 -0.1584
 6302SOL    HW220901   6.342   4.018   4.167 -0.9322  2.1252 -0.9217
 6303SOL     OW20902   7.134   0.321   0.027 -0.2212 -0.0058  0.8234
 6303SOL    HW120903   7.210   0.375   0.049  0.1347  0.1679 -0.7290
 6303SOL    HW220904   7.168   0.232   0.028  0.9502  0.2119 -2.9729
 6304SOL     OW20905   4.696   7.460   2.066 -0.0291 -0.9011 -0.2062
 6304SOL    HW120906   4.694   7.556   2.073  2.1392 -0.7628 -0.9421
 6304SOL    HW220907   4.781   7.435   2.103 -0.0592 -2.4380 -1.1081
 6305SOL     OW20908   5.312   2.593   4.947 -0.4025  0.0371 -0.1349
 6305SOL    HW120909   5.385   2.655   4.951  1.3546 -1.9081 -0.5488
 6305SOL    HW220910   5.316   2.546   5.030  0.2043 -1.5153 -0.9985
 6306SOL     OW20911   6.563   0.691   0.022 -0.1712  0.5852  0.1428
 6306SOL    HW120912   6.647   0.732   0.005 -0.7545  1.0282 -2.0610
 6306SOL    HW220913   6.584   0.608   0.064  1.3683  0.7192 -0.3179
 6307SOL     OW20914   8.780   4.905   1.373 -0.4421 -0.2002  0.4610
 6307SOL    HW120915   8.694   4.874   1.400  0.0007  0.2934  2.6402
 6307SOL    HW220916   8.775   5.001   1.380  0.3923 -0.1856  0.9827
 6308SOL     OW20917   7.160   3.704   2.229  0.2488  0.7952  0.4163
 6308SOL    HW120918   7.077   3.658   2.238  0.9168 -0.7221 -0.7768
 6308SOL    HW220919   7.154   3.749   2.145  0.5497  0.8984  0.4479
 6309SOL     OW20920   5.591   7.129   5.139 -0.1742 -0.2507  0.3581
 6309SOL    HW120921   5.544   7.046   5.151  1.0649 -0.7621  1.8525
 6309SOL    HW220922   5.627   7.149   5.225 -1.3714  2.4590  0.3279
 6310SOL     OW20923   0.764   6.827   7.280  0.1096 -0.4108 -0.1708
 6310SOL    HW120924   0.756   6.756   7.344 -0.7516 -0.6621 -0.5475
 6310SOL    HW220925   0.803   6.900   7.330 -1.0340 -0.4231  0.7875
 6311SOL     OW20926   7.237   8.801   8.092  0.0770  0.2056 -0.6018
 6311SOL    HW120927   7.327   8.804   8.124  0.2894 -0.2755 -1.1359
 6311SOL    HW220928   7.242   8.750   8.011 -0.7345 -0.1658 -0.4288
 6312SOL     OW20929   5.756   4.182   0.445  0.0294 -0.7078 -0.4075
 6312SOL    HW120930   5.711   4.215   0.367  1.3672  0.0479 -0.8882
 6312SOL    HW220931   5.849   4.202   0.430  0.5023 -1.9310  0.6966
 6313SOL     OW20932   3.006   3.646   0.561 -0.3394 -0.6657 -0.1256
 6313SOL    HW120933   3.072   3.697   0.514 -2.0722 -0.1006 -2.1110
 6313SOL    HW220934   3.018   3.557   0.529  0.1786 -0.7930  0.4008
 6314SOL     OW20935   8.772   1.274   5.007  0.0466 -0.0418 -0.2328
 6314SOL    HW120936   8.780   1.368   5.017  1.3068 -0.2280  0.6822
 6314SOL    HW220937   8.861   1.243   4.988 -0.2877 -1.0846 -0.1910
 6315SOL     OW20938   4.049   6.598   4.104  0.4123 -0.2440  0.0684
 6315SOL    HW120939   4.096   6.677   4.079  0.1634  0.3299  1.3419
 6315SOL    HW220940   4.114   6.528   4.099  0.4907 -0.0820 -1.6216
 6316SOL     OW20941   7.494   2.096   7.780  0.7956 -0.1635 -0.1047
 6316SOL    HW120942   7.447   2.162   7.831  1.0118 -0.0989  0.0160
 6316SOL    HW220943   7.444   2.016   7.791 -1.1165  0.5633 -2.5603
 6317SOL     OW20944   7.000   1.659   4.406  0.1502 -0.4134  0.6167
 6317SOL    HW120945   7.055   1.736   4.413  0.3721 -0.5136  0.0790
 6317SOL    HW220946   6.945   1.675   4.329 -2.6059  0.9362  2.7088
 6318SOL     OW20947   6.686   6.190   6.809 -0.1032 -0.0405 -0.2806
 6318SOL    HW120948   6.734   6.267   6.841  1.5366 -0.2182 -2.0824
 6318SOL    HW220949   6.626   6.226   6.743 -0.2979 -0.1601 -0.1683
 6319SOL     OW20950   3.780   7.662   2.727 -0.0192  0.7674 -0.4345
 6319SOL    HW120951   3.789   7.569   2.710 -0.8317  0.6079 -0.0449
 6319SOL    HW220952   3.832   7.704   2.659  1.6788  0.0084  0.3596
 6320SOL     OW20953   7.675   2.800   6.387 -0.0705  0.0709 -0.5029
 6320SOL    HW120954   7.591   2.839   6.409  0.0616  0.2905 -0.3857
 6320SOL    HW220955   7.737   2.872   6.391  0.3888 -0.3685  0.9344
 6321SOL     OW20956   0.922   6.490   1.552 -0.7662  0.4764  0.3035
 6321SOL    HW120957   0.948   6.573   1.512 -1.1679  0.3943 -0.1222
 6321SOL    HW220958   0.840   6.510   1.597 -0.5034  0.4796  0.7925
 6322SOL     OW20959   5.698   8.398   0.723 -0.1941 -0.1529 -0.3366
 6322SOL    HW120960   5.769   8.423   0.782 -0.0357 -1.5799  0.1070
 6322SOL    HW220961   5.625   8.376   0.781 -0.0133 -1.6444 -0.6389
 6323SOL     OW20962   8.056   4.279   2.030  0.0345 -0.1184  0.0822
 6323SOL    HW120963   8.024   4.336   2.100 -0.3352  0.2024 -0.3417
 6323SOL    HW220964   8.046   4.330   1.950 -0.7264 -0.9207 -0.3634
 6324SOL     OW20965   7.751   6.059   8.715 -0.2518 -0.3272 -0.0760
 6324SOL    HW120966   7.726   6.116   8.642  0.1048  0.7460  0.6175
 6324SOL    HW220967   7.826   6.102   8.756  0.3540 -1.5621  0.1751
 6325SOL     OW20968   8.506   4.309   1.053 -0.1555 -0.5828  0.5445
 6325SOL    HW120969   8.467   4.225   1.076 -1.6211 -0.3185 -0.8618
 6325SOL    HW220970   8.535   4.299   0.962  1.8451 -0.3019  1.0832
 6326SOL     OW20971   2.945   4.602   2.388  0.2709 -0.4761  0.0253
 6326SOL    HW120972   2.924   4.570   2.301 -0.1551  2.1206 -0.9084
 6326SOL    HW220973   2.868   4.581   2.441  0.1620 -1.2540 -0.4267
 6327SOL     OW20974   6.746   3.937   7.946  0.1019  0.5499  0.5335
 6327SOL    HW120975   6.797   3.856   7.953 -0.7594  0.0073  0.6711
 6327SOL    HW220976   6.773   3.975   7.862 -0.8536 -0.8680 -0.4683
 6328SOL     OW20977   4.523   6.315   5.484 -0.4193 -0.1750  0.0371
 6328SOL    HW120978   4.437   6.357   5.472  0.2195  1.3636  0.5157
 6328SOL    HW220979   4.538   6.319   5.579  0.5800  0.4705 -0.1331
 6329SOL     OW20980   4.306   1.868   3.904  0.4617 -0.1789 -0.0306
 6329SOL    HW120981   4.264   1.910   3.830  0.1805 -0.6799 -0.1586
 6329SOL    HW220982   4.394   1.846   3.873  0.8243  0.8330  0.2255
 6330SOL     OW20983   8.761   2.086   8.119 -0.5499  0.1734 -0.1752
 6330SOL    HW120984   8.729   2.116   8.034  1.0727  1.8676 -0.2450
 6330SOL    HW220985   8.689   2.034   8.154 -1.8148  0.6106 -1.9576
 6331SOL     OW20986   4.524   2.006   3.626 -0.2820 -0.4088  0.5387
 6331SOL    HW120987   4.441   2.053   3.616 -0.0805 -0.2025 -0.2703
 6331SOL    HW220988   4.578   2.038   3.554 -0.1562 -1.9304 -0.0837
 6332SOL     OW20989   1.484   0.550   8.700 -0.0797  0.0702  0.0209
 6332SOL    HW120990   1.497   0.517   8.789 -0.4736  2.5836  1.0954
 6332SOL    HW220991   1.389   0.557   8.691 -0.0034  2.1315  0.3873
 6333SOL     OW20992   2.568   5.118   6.607  0.4591 -0.1267 -0.5987
 6333SOL    HW120993   2.637   5.096   6.545  1.1954  0.0582  0.1495
 6333SOL    HW220994   2.575   5.212   6.619  2.2187 -0.5080  1.9512
 6334SOL     OW20995   5.640   2.826   6.692  0.2422 -0.6756  0.0119
 6334SOL    HW120996   5.695   2.895   6.729 -1.2359  0.2574  0.5481
 6334SOL    HW220997   5.651   2.835   6.597  1.6790 -1.0908  0.1156
 6335SOL     OW20998   3.367   0.227   1.885 -0.3227  0.0300 -0.3393
 6335SOL    HW120999   3.313   0.241   1.807 -1.6204 -0.5098  0.4369
 6335SOL    HW221000   3.416   0.309   1.895 -1.7630  0.9332 -0.4918
 6336SOL     OW21001   8.665   3.744   3.253  0.8819 -0.0464  0.0486
 6336SOL    HW121002   8.754   3.718   3.230  1.0496  0.7725 -0.2890
 6336SOL    HW221003   8.662   3.838   3.233 -0.3053 -0.2227 -0.7154
 6337SOL     OW21004   5.509   6.475   2.434  0.2782  0.2516  0.1198
 6337SOL    HW121005   5.595   6.433   2.431  1.3197  2.2725 -1.1225
 6337SOL    HW221006   5.464   6.443   2.356 -0.1153 -0.7790  0.7495
 6338SOL     OW21007   4.429   5.172   7.329  0.4835  0.1472  0.0448
 6338SOL    HW121008   4.357   5.210   7.380  0.3207 -0.0610 -0.0292
 6338SOL    HW221009   4.437   5.083   7.361 -0.2026 -0.2719 -0.8872
 6339SOL     OW21010   7.344   5.684   4.512  0.3370 -0.0002  0.8690
 6339SOL    HW121011   7.396   5.609   4.483 -0.0287  0.8512 -2.3677
 6339SOL    HW221012   7.253   5.659   4.493  0.2402  1.3431 -0.6576
 6340SOL     OW21013   7.197   7.942   0.812  0.2180  0.3042 -0.6795
 6340SOL    HW121014   7.174   7.864   0.761  0.3115  0.2691 -0.6694
 6340SOL    HW221015   7.114   7.987   0.828 -0.1400 -0.9459  1.2515
 6341SOL     OW21016   4.007   0.957   8.207  0.1553 -0.1166 -0.0218
 6341SOL    HW121017   4.042   1.043   8.231  0.4417 -0.6382  1.5522
 6341SOL    HW221018   4.082   0.899   8.211 -0.3644 -0.7541  0.6955
 6342SOL     OW21019   8.102   2.228   4.635  0.3885 -0.2605 -0.1667
 6342SOL    HW121020   8.152   2.156   4.597 -0.3786 -0.6906 -0.3745
 6342SOL    HW221021   8.168   2.283   4.678  0.8785 -1.5919  0.8396
 6343SOL     OW21022   3.905   6.935   5.893  0.2775  0.1205 -0.1925
 6343SOL    HW121023   3.901   6.840   5.899  0.1937 -0.0105 -1.9018
 6343SOL    HW221024   3.872   6.966   5.978  1.0393 -1.3549  0.6864
 6344SOL     OW21025   7.743   1.733   6.633 -0.1875  0.0622  0.1955
 6344SOL    HW121026   7.658   1.692   6.619 -0.7472  1.0323  0.7098
 6344SOL    HW221027   7.791   1.670   6.687 -1.0086  0.0513  0.9311
 6345SOL     OW21028   5.891   2.016   6.491 -0.3490 -0.2155 -0.2389
 6345SOL    HW121029   5.925   2.071   6.420 -1.7879  0.7789 -0.2019
 6345SOL    HW221030   5.834   2.075   6.541  1.8599 -0.3871  2.7591
 6346SOL     OW21031   4.743   5.453   3.310  0.3355 -0.4789 -0.0808
 6346SOL    HW121032   4.694   5.371   3.314  0.3922 -0.4780  1.0653
 6346SOL    HW221033   4.719   5.499   3.390  1.2741  0.0622 -0.0957
 6347SOL     OW21034   1.107   5.643   7.386 -0.3604  0.7286 -0.3211
 6347SOL    HW121035   1.175   5.630   7.452 -0.5877  0.7963 -0.0719
 6347SOL    HW221036   1.155   5.654   7.304 -0.1055 -0.2169 -0.3099
 6348SOL     OW21037   5.544   1.367   3.548  0.3955 -0.4749  0.4355
 6348SOL    HW121038   5.490   1.364   3.627  1.2610 -0.6922  1.0321
 6348SOL    HW221039   5.490   1.325   3.481 -0.4670 -0.0227  0.8250
 6349SOL     OW21040   4.133   2.804   5.420 -0.3640 -0.2157  0.1265
 6349SOL    HW121041   4.079   2.833   5.493 -2.1637  0.6574 -1.4314
 6349SOL    HW221042   4.090   2.725   5.388 -0.1772 -0.0529 -0.5517
 6350SOL     OW21043   1.200   3.038   0.402  0.0626  0.0230 -0.1555
 6350SOL    HW121044   1.142   3.047   0.326 -1.3710  2.4148  1.0910
 6350SOL    HW221045   1.232   3.127   0.417  0.6182 -0.4735  1.8360
 6351SOL     OW21046   7.950   8.369   3.518  0.0078  0.1904 -0.3884
 6351SOL    HW121047   7.876   8.352   3.459 -0.8486  0.9462  0.4243
 6351SOL    HW221048   8.011   8.421   3.465 -1.2405  1.8054 -0.3294
 6352SOL     OW21049   4.826   3.601   5.416  0.5128  0.4661 -0.3454
 6352SOL    HW121050   4.882   3.641   5.482  0.9107  0.4009 -0.6427
 6352SOL    HW221051   4.739   3.639   5.432  0.0743 -1.2197  1.6739
 6353SOL     OW21052   3.240   3.700   1.610  0.3183  0.1422  0.1463
 6353SOL    HW121053   3.153   3.667   1.590 -0.3599  0.8349  1.7290
 6353SOL    HW221054   3.299   3.626   1.593 -0.9304 -1.3208  1.7533
 6354SOL     OW21055   0.553   5.292   5.822  0.0197 -0.4610  0.3339
 6354SOL    HW121056   0.508   5.363   5.776  3.2289  0.8042 -1.1836
 6354SOL    HW221057   0.547   5.217   5.762 -1.6054 -0.9236  1.0186
 6355SOL     OW21058   1.207   8.723   5.757  0.2886 -0.3070 -0.4678
 6355SOL    HW121059   1.157   8.705   5.837 -0.8550  0.5129 -0.9742
 6355SOL    HW221060   1.140   8.736   5.690  1.0379  3.0217 -0.7321
 6356SOL     OW21061   7.782   6.553   5.235 -0.2896  0.9615 -0.3403
 6356SOL    HW121062   7.845   6.483   5.255  0.6258  2.0235  0.6162
 6356SOL    HW221063   7.738   6.524   5.155  0.5677 -0.3706 -0.3484
 6357SOL     OW21064   0.181   5.794   0.048 -0.1253  0.2661 -0.0931
 6357SOL    HW121065   0.244   5.850   0.094  1.5173 -1.3472 -0.2383
 6357SOL    HW221066   0.203   5.706   0.076 -0.8704 -0.5441 -1.8821
 6358SOL     OW21067   4.635   8.712   7.675  0.3898  0.2509 -0.5514
 6358SOL    HW121068   4.695   8.786   7.661 -0.3153  0.7081 -1.2330
 6358SOL    HW221069   4.567   8.724   7.609  0.5724 -1.3496 -1.0765
 6359SOL     OW21070   6.638   5.624   2.192 -0.3658  0.0665 -0.3450
 6359SOL    HW121071   6.718   5.576   2.169 -0.8013  0.6695 -3.5598
 6359SOL    HW221072   6.666   5.686   2.259  2.4200  1.5038 -2.5964
 6360SOL     OW21073   0.766   4.639   6.417  0.4266  0.0411 -0.3883
 6360SOL    HW121074   0.814   4.699   6.360  2.4058  0.9072  2.0095
 6360SOL    HW221075   0.825   4.565   6.430  0.2502  0.1190  0.9648
 6361SOL     OW21076   2.324   4.889   1.819  0.2764 -0.2357 -0.4600
 6361SOL    HW121077   2.403   4.918   1.865 -0.1666  1.0596 -0.4763
 6361SOL    HW221078   2.256   4.888   1.886  0.3807 -1.7271 -0.3619
 6362SOL     OW21079   5.536   7.218   2.744  0.2809  0.5453 -0.6078
 6362SOL    HW121080   5.540   7.249   2.653 -0.5103 -1.8414 -1.5413
 6362SOL    HW221081   5.621   7.176   2.759  1.4406  3.1433  0.7274
 6363SOL     OW21082   0.565   7.703   7.482 -0.3927 -0.0718  0.1790
 6363SOL    HW121083   0.565   7.690   7.577  0.1324  2.2307  0.5498
 6363SOL    HW221084   0.489   7.759   7.466 -0.9518 -1.0971 -0.8962
 6364SOL     OW21085   1.312   3.244   6.462 -0.2293  0.3045 -0.5462
 6364SOL    HW121086   1.351   3.173   6.514  1.2563  0.5974 -1.2115
 6364SOL    HW221087   1.289   3.203   6.379 -1.2084  0.1803 -0.2298
 6365SOL     OW21088   8.732   6.015   1.821 -0.3022 -0.0106 -0.7763
 6365SOL    HW121089   8.754   6.003   1.728  1.4173  0.0895 -0.4057
 6365SOL    HW221090   8.681   6.096   1.822 -0.3566 -0.0213 -1.6450
 6366SOL     OW21091   1.575   5.920   7.268  0.0099 -0.0614  0.8269
 6366SOL    HW121092   1.495   5.959   7.233 -0.8448 -2.1797  0.3270
 6366SOL    HW221093   1.635   5.917   7.194  0.7704  1.9033  1.2946
 6367SOL     OW21094   3.114   8.173   0.213  0.5531 -0.3247 -0.6469
 6367SOL    HW121095   3.158   8.254   0.239  0.6028  0.1101 -1.9971
 6367SOL    HW221096   3.082   8.135   0.295 -3.0002  3.0800 -0.1562
 6368SOL     OW21097   6.477   0.861   3.503 -1.0498 -0.0157 -0.6120
 6368SOL    HW121098   6.447   0.803   3.573 -2.9741  1.7847  0.1830
 6368SOL    HW221099   6.570   0.875   3.521 -1.0255 -1.2205  0.3483
 6369SOL     OW21100   8.142   4.094   3.391  0.7902  0.1548  0.2988
 6369SOL    HW121101   8.174   4.011   3.425  0.0997 -0.0770  0.3993
 6369SOL    HW221102   8.060   4.109   3.438  0.3736  0.3636 -0.4815
 6370SOL     OW21103   7.265   1.036   8.204  0.4127 -0.3253 -0.5775
 6370SOL    HW121104   7.211   1.084   8.140 -0.2736 -0.2167  0.0780
 6370SOL    HW221105   7.225   0.949   8.208 -0.1277 -0.0413  0.3968
 6371SOL     OW21106   5.914   0.743   6.154  0.0006  0.1721  0.0070
 6371SOL    HW121107   5.849   0.741   6.083  0.4608  0.7401 -0.4341
 6371SOL    HW221108   5.901   0.660   6.200 -2.1775  0.9378  0.9571
 6372SOL     OW21109   1.943   3.153   6.669 -0.0550  0.2105  0.1961
 6372SOL    HW121110   1.948   3.172   6.762 -1.0921  0.2529  0.2592
 6372SOL    HW221111   1.850   3.140   6.652  0.2451 -1.0899 -0.5816
 6373SOL     OW21112   8.794   6.308   3.545 -0.1534  0.0320  0.4918
 6373SOL    HW121113   8.740   6.281   3.471  1.6369 -0.5943 -0.6671
 6373SOL    HW221114   8.740   6.370   3.594 -2.3482 -1.5060  0.1337
 6374SOL     OW21115   6.928   1.931   2.796  0.4026  0.0440  0.1297
 6374SOL    HW121116   7.017   1.897   2.803 -0.4804 -2.3882  0.6295
 6374SOL    HW221117   6.923   2.001   2.861  1.4213 -1.1061  1.5173
 6375SOL     OW21118   8.772   7.161   0.116 -0.3268  0.2563 -0.3370
 6375SOL    HW121119   8.679   7.149   0.096  0.2319 -1.1374 -2.4111
 6375SOL    HW221120   8.790   7.252   0.094 -0.9184  0.1592 -1.2585
 6376SOL     OW21121   5.007   1.609   2.369  0.7357 -0.2802 -0.6949
 6376SOL    HW121122   4.954   1.565   2.435  1.9423  2.3514  2.2643
 6376SOL    HW221123   4.949   1.675   2.331  0.3827 -1.0253 -1.4881
 6377SOL     OW21124   5.631   0.346   7.235 -0.3834  0.0584 -0.0456
 6377SOL    HW121125   5.680   0.266   7.216  0.8192  0.8782 -0.4976
 6377SOL    HW221126   5.557   0.345   7.174  0.0910 -0.2903 -0.6183
 6378SOL     OW21127   5.517   6.707   3.298 -0.6123  0.7924 -0.0701
 6378SOL    HW121128   5.586   6.771   3.279  0.6820 -1.2400 -3.1217
 6378SOL    HW221129   5.441   6.740   3.251 -0.4535  0.9415 -0.2272
 6379SOL     OW21130   7.552   6.814   2.954 -0.1595  0.2476  0.2471
 6379SOL    HW121131   7.513   6.874   3.018  2.6714  2.1958  0.3563
 6379SOL    HW221132   7.608   6.756   3.005 -0.1780 -0.1760 -0.2021
 6380SOL     OW21133   0.088   8.381   1.542  0.3629 -0.3636 -0.2237
 6380SOL    HW121134   0.126   8.417   1.463 -1.4846 -0.0429 -1.0255
 6380SOL    HW221135   0.057   8.457   1.591 -2.2430 -0.6860 -1.2306
 6381SOL     OW21136   0.091   3.725   5.989  0.2516  0.4716 -0.2027
 6381SOL    HW121137   0.119   3.692   6.074  2.1257  2.0699 -0.1207
 6381SOL    HW221138   0.059   3.648   5.942  1.8075 -0.9396  0.9525
 6382SOL     OW21139   4.523   7.498   4.645 -0.4538  0.3400  0.1830
 6382SOL    HW121140   4.508   7.427   4.707 -0.8964 -0.0070 -0.3195
 6382SOL    HW221141   4.585   7.556   4.690  2.4179 -1.9037 -0.5896
 6383SOL     OW21142   7.308   7.729   5.741 -0.1333  0.5971  0.3810
 6383SOL    HW121143   7.243   7.799   5.741 -1.2156 -0.3780 -0.5513
 6383SOL    HW221144   7.258   7.648   5.732  1.0789 -0.3452  1.5892
 6384SOL     OW21145   0.567   7.458   7.723 -1.1491  0.1064 -0.0116
 6384SOL    HW121146   0.589   7.379   7.675 -3.4938 -0.0044 -1.0315
 6384SOL    HW221147   0.605   7.445   7.810 -2.5842 -2.7667  0.2929
 6385SOL     OW21148   4.429   8.590   4.471  0.0586  0.0997 -0.0041
 6385SOL    HW121149   4.444   8.658   4.537  1.1787 -0.7476  0.6434
 6385SOL    HW221150   4.389   8.518   4.520  0.7368 -0.4712 -0.2812
 6386SOL     OW21151   7.398   4.305   2.720 -0.3521 -0.6956 -0.0161
 6386SOL    HW121152   7.471   4.278   2.664 -0.2175  1.6320 -1.0894
 6386SOL    HW221153   7.321   4.293   2.665 -0.5875 -1.3925  0.4551
 6387SOL     OW21154   7.617   2.651   8.222 -0.2025 -0.3432 -0.2641
 6387SOL    HW121155   7.649   2.613   8.140  2.7418 -0.2353  0.6837
 6387SOL    HW221156   7.681   2.719   8.243 -1.6691  0.6128  1.4213
 6388SOL     OW21157   4.809   3.208   5.938 -0.1348  0.0833 -0.3085
 6388SOL    HW121158   4.783   3.208   5.846 -1.1709  2.1159 -0.0715
 6388SOL    HW221159   4.874   3.278   5.945 -2.2086  2.0034  0.9835
 6389SOL     OW21160   0.285   6.846   0.421  0.1101 -0.1296 -0.1544
 6389SOL    HW121161   0.359   6.847   0.482 -0.2357 -2.2360  0.3842
 6389SOL    HW221162   0.208   6.859   0.476  0.0661  4.1570 -0.9435
 6390SOL     OW21163   2.472   8.014   2.291 -0.5713  0.3331 -0.0149
 6390SOL    HW121164   2.522   8.027   2.210  1.0530  0.9996  1.0643
 6390SOL    HW221165   2.393   8.067   2.278 -0.3648  0.4016 -1.1664
 6391SOL     OW21166   4.124   4.634   8.802 -0.0720  0.6333  0.3527
 6391SOL    HW121167   4.102   4.640   8.895 -1.7472 -0.4508  0.0747
 6391SOL    HW221168   4.130   4.540   8.785 -0.2091  0.8030 -0.7247
 6392SOL     OW21169   2.667   4.266   1.383 -0.7297  0.1431  0.4304
 6392SOL    HW121170   2.671   4.261   1.288  1.0660 -0.3825  0.4983
 6392SOL    HW221171   2.669   4.175   1.412 -0.7641  0.3126  0.9713
 6393SOL     OW21172   8.071   3.246   8.393  0.0694  0.2228  0.0673
 6393SOL    HW121173   8.167   3.243   8.399  0.1253  1.2814 -0.0215
 6393SOL    HW221174   8.044   3.294   8.471 -0.3057  0.8238 -0.4242
 6394SOL     OW21175   1.826   4.983   1.644  0.3065  0.1389  0.2342
 6394SOL    HW121176   1.731   4.981   1.659  0.2083 -1.4942 -0.4142
 6394SOL    HW221177   1.863   4.994   1.732 -0.4685  1.2695  0.4464
 6395SOL     OW21178   4.848   6.552   7.692 -0.4820 -0.0854  0.0242
 6395SOL    HW121179   4.925   6.609   7.689  0.3893 -1.1295  1.4217
 6395SOL    HW221180   4.822   6.553   7.784  0.5792 -3.1783  0.4881
 6396SOL     OW21181   3.582   3.596   2.384  0.1368 -0.4142  0.4931
 6396SOL    HW121182   3.559   3.520   2.331  0.2993 -0.4803  0.5147
 6396SOL    HW221183   3.673   3.615   2.360  0.4463 -0.8815  1.2644
 6397SOL     OW21184   0.145   0.819   2.958 -0.9575 -0.3614 -0.1362
 6397SOL    HW121185   0.151   0.829   3.053  1.9811 -0.9435 -0.1602
 6397SOL    HW221186   0.112   0.903   2.926  1.4894  1.2152  1.1925
 6398SOL     OW21187   3.780   7.517   2.985 -0.3922 -0.2161 -0.7843
 6398SOL    HW121188   3.864   7.490   3.021 -0.1373  0.6051 -0.7417
 6398SOL    HW221189   3.802   7.579   2.916 -0.9809  1.4299  0.4237
 6399SOL     OW21190   2.320   3.472   0.143 -0.1203 -0.0169  0.7599
 6399SOL    HW121191   2.305   3.421   0.063  1.7235 -0.7471  0.8226
 6399SOL    HW221192   2.248   3.534   0.145  0.4083  0.8844 -2.1884
 6400SOL     OW21193   2.325   3.237   5.542 -0.1165  0.0641  0.6277
 6400SOL    HW121194   2.291   3.180   5.611  0.3664 -1.3672 -0.2524
 6400SOL    HW221195   2.406   3.194   5.513  0.3161  1.2555 -0.0284
 6401SOL     OW21196   2.252   6.074   8.764 -0.3709  0.1891 -0.3361
 6401SOL    HW121197   2.232   6.063   8.857 -2.1528  2.0322 -0.4398
 6401SOL    HW221198   2.214   6.158   8.741 -0.8583 -0.6642 -2.9781
 6402SOL     OW21199   3.490   5.043   6.731  0.0751 -0.1899 -0.1960
 6402SOL    HW121200   3.541   5.109   6.684 -0.6580  0.1508 -0.5282
 6402SOL    HW221201   3.402   5.079   6.735  0.0094 -0.4332  1.0308
 6403SOL     OW21202   1.004   3.154   4.048  0.3947  0.1099 -0.5250
 6403SOL    HW121203   1.054   3.158   4.129  0.4989 -0.6160 -0.5489
 6403SOL    HW221204   0.920   3.196   4.070  1.1494  1.7243 -0.6131
 6404SOL     OW21205   1.159   8.886   6.633  0.0376  0.3010 -0.4253
 6404SOL    HW121206   1.084   8.915   6.685  1.6630  0.9053  1.7155
 6404SOL    HW221207   1.126   8.811   6.582 -1.8424  0.1494  0.9387
 6405SOL     OW21208   5.186   7.023   2.515  0.0402  0.1250  0.5237
 6405SOL    HW121209   5.201   7.110   2.478 -1.5084 -0.0521 -0.6156
 6405SOL    HW221210   5.268   7.002   2.560  1.1270  1.3898 -0.7561
 6406SOL     OW21211   8.021   6.744   3.759 -0.3931 -0.0920  0.2915
 6406SOL    HW121212   7.943   6.689   3.768 -0.6406  0.3647  0.9508
 6406SOL    HW221213   8.041   6.773   3.848  1.3338 -1.2936  0.3426
 6407SOL     OW21214   8.308   6.891   0.045  0.0635  0.1480  0.5632
 6407SOL    HW121215   8.308   6.813   0.100 -1.1165 -1.0984 -1.1000
 6407SOL    HW221216   8.319   6.858  -0.044 -2.8807  1.5856 -0.4722
 6408SOL     OW21217   7.419   7.447   0.798  0.2593  0.2330 -0.0819
 6408SOL    HW121218   7.463   7.392   0.733  1.1973  0.0788  0.6696
 6408SOL    HW221219   7.464   7.532   0.792  1.8744 -0.4221  1.8780
 6409SOL     OW21220   0.709   2.760   5.317  0.1016 -0.2602 -0.1352
 6409SOL    HW121221   0.693   2.769   5.411  1.7700 -0.5901  0.2069
 6409SOL    HW221222   0.720   2.666   5.303 -1.8378 -0.4049 -0.9936
 6410SOL     OW21223   0.779   1.827   5.856  0.2600  0.3690  0.3520
 6410SOL    HW121224   0.741   1.830   5.768  0.0302 -2.1123  0.2860
 6410SOL    HW221225   0.867   1.864   5.845  0.5658 -0.6946 -1.1555
 6411SOL     OW21226   5.544   1.968   3.421 -0.1151 -0.0081 -0.0962
 6411SOL    HW121227   5.494   2.020   3.357 -0.6625 -2.0563 -1.4353
 6411SOL    HW221228   5.628   1.951   3.377 -1.0278 -2.6548 -1.0252
 6412SOL     OW21229   0.159   0.593   4.868  0.3133  0.0629  0.6693
 6412SOL    HW121230   0.065   0.576   4.867  0.4720 -0.8810 -0.4519
 6412SOL    HW221231   0.168   0.681   4.831  0.0567 -1.3753 -3.3676
 6413SOL     OW21232   6.519   6.731   0.858 -0.0621  0.4619 -0.3059
 6413SOL    HW121233   6.536   6.809   0.805 -0.0046 -0.2119 -1.3276
 6413SOL    HW221234   6.501   6.663   0.793 -0.5678 -0.2633  0.5823
 6414SOL     OW21235   6.479   5.578   5.837  0.0795  0.0208 -0.4591
 6414SOL    HW121236   6.438   5.606   5.919 -0.5814 -0.5575 -0.5837
 6414SOL    HW221237   6.514   5.491   5.856  2.3286  0.9490 -0.0087
 6415SOL     OW21238   3.434   4.952   8.699  0.0689  0.6221 -0.7149
 6415SOL    HW121239   3.498   4.881   8.696 -1.0189 -0.3583 -1.0644
 6415SOL    HW221240   3.399   4.957   8.610 -0.0476  1.4450 -0.6355
 6416SOL     OW21241   6.806   5.294   3.319  0.6316  0.7063 -0.1873
 6416SOL    HW121242   6.797   5.310   3.225 -1.4157 -0.0220 -0.1610
 6416SOL    HW221243   6.732   5.340   3.358 -0.2200 -1.4019  0.7660
 6417SOL     OW21244   4.602   5.500   2.178  0.2495  0.1804 -0.3078
 6417SOL    HW121245   4.628   5.519   2.268  2.2783 -0.0207 -0.7899
 6417SOL    HW221246   4.546   5.573   2.153 -1.4682 -0.4392  1.5236
 6418SOL     OW21247   5.874   5.656   8.815 -0.9449  0.6900 -0.5216
 6418SOL    HW121248   5.926   5.736   8.808 -2.0070  1.3247 -2.0131
 6418SOL    HW221249   5.926   5.597   8.869  0.6589  1.7736 -0.8164
 6419SOL     OW21250   3.420   4.512   0.256 -0.1778 -0.2114  0.1595
 6419SOL    HW121251   3.348   4.573   0.272  2.2305  2.2026  3.2425
 6419SOL    HW221252   3.482   4.563   0.202  0.0210 -1.6173 -1.0038
 6420SOL     OW21253   7.579   2.951   4.994 -0.3559 -0.0089  0.1137
 6420SOL    HW121254   7.515   3.015   4.962  1.0198  1.3838  0.0126
 6420SOL    HW221255   7.626   2.923   4.916  0.2468  0.2466  0.3770
 6421SOL     OW21256   4.599   2.917   7.813 -0.8281  0.2289  0.0924
 6421SOL    HW121257   4.599   2.836   7.762 -0.1442  0.8173 -0.8856
 6421SOL    HW221258   4.518   2.961   7.787  0.6054  1.6262 -2.3917
 6422SOL     OW21259   4.973   0.306   7.675 -0.6016 -0.1350 -0.7405
 6422SOL    HW121260   4.938   0.273   7.592 -0.0587 -3.3140  0.1877
 6422SOL    HW221261   4.915   0.379   7.697 -2.5382 -1.0383 -2.4871
 6423SOL     OW21262   8.571   3.341   7.446  0.0707  0.4298 -0.0747
 6423SOL    HW121263   8.621   3.419   7.473 -0.3636  0.5815  0.3071
 6423SOL    HW221264   8.634   3.269   7.451  0.5030  0.7704 -0.5271
 6424SOL     OW21265   6.466   1.537   5.782 -0.1986 -0.6152  0.3466
 6424SOL    HW121266   6.508   1.536   5.696 -0.5664  1.7962  0.0668
 6424SOL    HW221267   6.392   1.477   5.773  0.9004 -1.9162 -0.3660
 6425SOL     OW21268   3.026   5.682   6.266 -0.2826  0.4597  0.1739
 6425SOL    HW121269   3.098   5.742   6.245 -0.4377  0.8365  0.6826
 6425SOL    HW221270   3.069   5.605   6.303 -0.1980  1.3186  1.9624
 6426SOL     OW21271   7.100   5.593   8.471 -0.0182  0.2667 -0.2192
 6426SOL    HW121272   7.074   5.501   8.478 -0.1649  0.4301  3.4390
 6426SOL    HW221273   7.025   5.636   8.430 -1.3696 -0.7924  1.0557
 6427SOL     OW21274   2.915   1.939   4.898 -0.4162 -0.4904 -0.3851
 6427SOL    HW121275   2.909   1.844   4.897 -0.1396 -0.5208 -2.1846
 6427SOL    HW221276   2.926   1.964   4.806  1.6989  1.1340  0.2036
 6428SOL     OW21277   7.985   4.087   3.969 -0.1807  0.2002  0.1323
 6428SOL    HW121278   8.018   4.137   3.895 -0.0717 -1.6051 -1.1085
 6428SOL    HW221279   7.900   4.054   3.940 -0.3616 -0.1151  0.9989
 6429SOL     OW21280   2.780   2.061   5.684  0.5765  0.4667  0.4938
 6429SOL    HW121281   2.822   2.015   5.611 -0.2178  0.0221  0.3038
 6429SOL    HW221282   2.762   1.992   5.748  0.0175  0.6234  0.5102
 6430SOL     OW21283   5.758   4.880   6.069  0.4404  0.1346 -0.3205
 6430SOL    HW121284   5.681   4.841   6.026 -0.7055 -0.3712  2.0262
 6430SOL    HW221285   5.771   4.964   6.024 -1.4688  0.2131 -0.8111
 6431SOL     OW21286   3.110   6.540   1.481  0.0051  0.3561  0.7524
 6431SOL    HW121287   3.181   6.490   1.521 -0.1941 -1.3563 -0.8902
 6431SOL    HW221288   3.155   6.607   1.429  0.4267 -0.2939  0.2599
 6432SOL     OW21289   3.175   3.259   6.862 -0.0453 -0.3466  0.0917
 6432SOL    HW121290   3.120   3.334   6.840 -0.2350 -0.2711  0.7884
 6432SOL    HW221291   3.132   3.220   6.938  2.3689  1.4146  2.5322
 6433SOL     OW21292   8.687   1.299   6.926 -0.2355  0.1469  0.1434
 6433SOL    HW121293   8.767   1.257   6.959  0.0186  1.6772  1.6211
 6433SOL    HW221294   8.679   1.269   6.835  2.7390  0.9574 -0.4725
 6434SOL     OW21295   2.044   4.198   0.711  0.6280 -0.0735 -0.1436
 6434SOL    HW121296   2.107   4.164   0.648  0.3307 -0.7222 -0.0947
 6434SOL    HW221297   1.979   4.244   0.658  0.3154 -0.7168 -0.3291
 6435SOL     OW21298   7.798   7.927   1.617 -0.6212  0.7870  0.0152
 6435SOL    HW121299   7.816   7.903   1.526  1.3923 -0.5735  0.6763
 6435SOL    HW221300   7.704   7.944   1.620 -0.6573  1.3323 -2.3976
 6436SOL     OW21301   1.624   1.962   0.721 -0.2143  0.2164 -0.2541
 6436SOL    HW121302   1.710   1.930   0.750  0.1386  1.7833  0.5747
 6436SOL    HW221303   1.609   1.919   0.637  1.0464 -0.6561 -0.0571
 6437SOL     OW21304   1.926   7.105   6.103  0.6297 -0.1476 -0.0554
 6437SOL    HW121305   1.849   7.161   6.107  1.3749  0.8702  0.4136
 6437SOL    HW221306   1.973   7.121   6.185 -0.1587 -3.0225  1.0928
 6438SOL     OW21307   2.776   3.263   7.614 -0.5460 -0.0929  0.9770
 6438SOL    HW121308   2.716   3.249   7.541  0.2212 -0.9948  0.4992
 6438SOL    HW221309   2.767   3.356   7.635 -2.9351 -0.4142  1.6579
 6439SOL     OW21310   0.886   8.255   8.547  0.4666 -0.1858  0.5330
 6439SOL    HW121311   0.928   8.291   8.625 -0.4021  0.2705  0.8037
 6439SOL    HW221312   0.878   8.329   8.488 -1.2457  0.0978  1.0538
 6440SOL     OW21313   3.992   0.341   1.582  0.2062 -0.3274 -0.1031
 6440SOL    HW121314   3.949   0.357   1.665  0.4181 -0.8425  0.1106
 6440SOL    HW221315   3.975   0.248   1.564 -0.0947 -0.1499 -0.7803
 6441SOL     OW21316   3.215   7.984   4.202  0.0251  0.0160 -0.4955
 6441SOL    HW121317   3.227   7.930   4.280 -0.5563 -0.4195 -0.7024
 6441SOL    HW221318   3.130   7.958   4.167 -0.5412  1.4625 -0.2917
 6442SOL     OW21319   3.278   1.346   4.706  0.2038 -0.1792 -0.2685
 6442SOL    HW121320   3.366   1.334   4.741 -0.6452  0.2838  2.1700
 6442SOL    HW221321   3.277   1.291   4.627  2.7850  0.1780 -0.6495
 6443SOL     OW21322   6.910   4.212   4.996 -0.0072 -0.3801  0.3008
 6443SOL    HW121323   6.961   4.132   4.992  0.7795  0.0877  0.7633
 6443SOL    HW221324   6.973   4.280   5.020 -0.7409  0.3027  0.3467
 6444SOL     OW21325   3.711   1.090   4.611  0.4353  0.3690 -0.2203
 6444SOL    HW121326   3.619   1.067   4.599 -0.2296  2.4500  0.4335
 6444SOL    HW221327   3.746   1.095   4.522 -0.5736  1.3393 -0.5800
 6445SOL     OW21328   8.374   8.728   7.119 -0.3029  0.1478 -0.0857
 6445SOL    HW121329   8.305   8.712   7.183 -1.5305 -3.2219 -1.9967
 6445SOL    HW221330   8.452   8.689   7.158  0.3214  2.7089  1.4584
 6446SOL     OW21331   7.395   5.137   1.336  0.6360  0.4233  0.8610
 6446SOL    HW121332   7.359   5.048   1.330  2.0951 -0.1006 -0.5854
 6446SOL    HW221333   7.359   5.182   1.260 -0.4390  1.2423  1.8173
 6447SOL     OW21334   2.672   2.359   0.687  0.2725  0.2161 -0.0341
 6447SOL    HW121335   2.740   2.370   0.753 -0.3737 -0.6340  0.8164
 6447SOL    HW221336   2.596   2.328   0.736 -1.3969  3.0357 -0.6384
 6448SOL     OW21337   8.875   3.622   4.211 -0.1021 -0.0397 -0.1362
 6448SOL    HW121338   8.919   3.595   4.130 -2.6127  0.2133 -1.7219
 6448SOL    HW221339   8.888   3.548   4.271  2.1184 -0.0886 -0.6001
 6449SOL     OW21340   5.668   1.161   1.161  0.1611  0.3034  0.2604
 6449SOL    HW121341   5.614   1.197   1.091  0.6979  1.6781  0.5188
 6449SOL    HW221342   5.745   1.218   1.163  0.6569 -0.3815  1.2442
 6450SOL     OW21343   3.764   8.011   0.253  0.2803  0.2693 -0.0974
 6450SOL    HW121344   3.833   8.041   0.195  0.1452  0.6024 -0.0924
 6450SOL    HW221345   3.698   8.080   0.249  0.2600  0.2883  0.4349
 6451SOL     OW21346   3.720   6.147   3.335 -1.0418  0.6126 -0.6112
 6451SOL    HW121347   3.744   6.169   3.245 -0.3206 -2.1908 -1.1969
 6451SOL    HW221348   3.643   6.090   3.326 -0.5140 -0.3064  0.4634
 6452SOL     OW21349   2.595   7.697   5.649  0.2386 -0.3219 -0.0636
 6452SOL    HW121350   2.528   7.764   5.660  0.6083  0.1567 -0.6456
 6452SOL    HW221351   2.651   7.706   5.726  1.2440  1.1715 -0.9069
 6453SOL     OW21352   1.944   5.554   3.276  0.1201  0.6210  0.2466
 6453SOL    HW121353   1.930   5.623   3.211  0.9923  1.2641  0.7177
 6453SOL    HW221354   2.028   5.576   3.316  0.5291 -0.8552  0.2522
 6454SOL     OW21355   8.820   1.028   3.686  0.6917 -0.0124  0.3679
 6454SOL    HW121356   8.731   1.029   3.652  1.1406  0.7594 -0.8780
 6454SOL    HW221357   8.819   1.092   3.757  1.0164  2.7373 -1.9286
 6455SOL     OW21358   0.326   6.685   1.120  0.5333  0.4333  0.3500
 6455SOL    HW121359   0.301   6.675   1.028  1.5267 -0.6567  0.1760
 6455SOL    HW221360   0.261   6.634   1.168  0.3593  0.5164  0.2046
 6456SOL     OW21361   3.879   7.614   7.777 -0.3771  0.2015 -0.1848
 6456SOL    HW121362   3.880   7.522   7.800  0.2714 -0.3093 -2.0549
 6456SOL    HW221363   3.941   7.622   7.704 -0.4055  2.1104 -0.0681
 6457SOL     OW21364   5.036   3.370   5.964 -0.3197 -0.1087 -0.0325
 6457SOL    HW121365   5.043   3.411   5.877 -0.4560 -0.6600 -0.3046
 6457SOL    HW221366   5.052   3.442   6.025 -0.5547  0.3577 -0.5099
 6458SOL     OW21367   3.623   0.256   7.090 -0.1547 -0.0841 -0.2442
 6458SOL    HW121368   3.682   0.235   7.019 -0.2466  0.1605 -0.3942
 6458SOL    HW221369   3.570   0.177   7.102 -1.1673  0.3736 -1.4562
 6459SOL     OW21370   6.535   4.872   3.342  0.2732  0.2088  0.4449
 6459SOL    HW121371   6.494   4.954   3.318 -0.4787 -0.0572  0.7842
 6459SOL    HW221372   6.477   4.834   3.408  2.1139  0.8121  2.5336
 6460SOL     OW21373   5.193   6.625   4.013 -0.1856 -0.3626 -0.1287
 6460SOL    HW121374   5.283   6.597   3.999 -0.4628 -1.6608  0.4809
 6460SOL    HW221375   5.140   6.564   3.960 -0.7295  0.0382 -0.0565
 6461SOL     OW21376   0.058   2.295   0.321 -0.2479 -0.1023  0.7535
 6461SOL    HW121377   0.044   2.258   0.408 -2.2531 -1.3072 -0.0271
 6461SOL    HW221378  -0.000   2.370   0.317 -1.7977 -1.2998 -0.2426
 6462SOL     OW21379   6.017   8.037   6.767 -0.7441  0.5901  0.0601
 6462SOL    HW121380   6.109   8.044   6.791 -0.0630 -0.6061 -1.9153
 6462SOL    HW221381   5.971   8.091   6.831  1.0791 -0.4339  2.4045
 6463SOL     OW21382   2.561   4.962   3.166  0.4616 -0.0132  0.2874
 6463SOL    HW121383   2.543   4.900   3.237 -2.0649 -0.5766 -0.7048
 6463SOL    HW221384   2.554   4.910   3.086 -2.7904  1.5423 -0.6585
 6464SOL     OW21385   3.035   3.390   0.514  0.7288  0.4408 -0.1094
 6464SOL    HW121386   3.012   3.310   0.562  0.4782  0.1358 -0.7379
 6464SOL    HW221387   3.124   3.374   0.483  1.2825  1.0448  1.0957
 6465SOL     OW21388   1.467   2.579   2.695  0.0268 -0.3979  0.5509
 6465SOL    HW121389   1.511   2.510   2.745 -1.1824 -0.4421  1.6105
 6465SOL    HW221390   1.478   2.658   2.749 -1.6492 -0.5310  1.1204
 6466SOL     OW21391   7.907   2.387   6.440  0.1137  0.0355  0.2473
 6466SOL    HW121392   7.883   2.297   6.418  1.0686 -0.3829  0.8966
 6466SOL    HW221393   7.886   2.437   6.361  1.0050 -1.0122 -0.6828
 6467SOL     OW21394   7.666   3.608   6.131 -0.1127  0.2969 -0.1973
 6467SOL    HW121395   7.628   3.660   6.202  1.8911 -0.7398  1.7589
 6467SOL    HW221396   7.590   3.571   6.086 -1.5228  2.7919 -0.0832
 6468SOL     OW21397   0.647   4.342   4.736 -0.0335  0.0844  0.3078
 6468SOL    HW121398   0.624   4.265   4.788  1.2351 -0.4664  0.0956
 6468SOL    HW221399   0.738   4.360   4.759  0.3125  0.3043 -1.1256
 6469SOL     OW21400   4.473   8.611   8.518  0.4369  0.1850 -0.4322
 6469SOL    HW121401   4.480   8.560   8.599 -1.8178  1.1021  0.4141
 6469SOL    HW221402   4.454   8.546   8.451 -3.6749 -0.1796  0.8305
 6470SOL     OW21403   8.397   5.682   8.613  0.0767  0.7244 -0.0725
 6470SOL    HW121404   8.306   5.710   8.626 -0.0599  0.0906  0.3615
 6470SOL    HW221405   8.416   5.625   8.687  0.7355  0.6115 -0.3204
 6471SOL     OW21406   3.546   4.365   7.987 -0.0527 -0.1488  0.0145
 6471SOL    HW121407   3.610   4.430   8.016 -0.0477 -0.1440 -0.0085
 6471SOL    HW221408   3.463   4.395   8.024 -0.2990  0.5946 -1.0925
 6472SOL     OW21409   1.235   2.067   1.399 -0.1436  0.5099  0.0855
 6472SOL    HW121410   1.321   2.053   1.359  0.9428 -0.0491  2.4337
 6472SOL    HW221411   1.251   2.131   1.468 -1.7262  0.7461  0.2782
 6473SOL     OW21412   6.966   4.818   7.004 -0.0288  0.7069  0.2333
 6473SOL    HW121413   7.057   4.792   7.017  0.3148  0.6471 -1.9481
 6473SOL    HW221414   6.954   4.894   7.061  1.1494  0.3036  1.0661
 6474SOL     OW21415   6.879   4.564   6.006  0.5642 -0.2017 -0.6357
 6474SOL    HW121416   6.932   4.638   6.036  2.2893 -1.3224 -0.7863
 6474SOL    HW221417   6.933   4.522   5.939 -0.0175 -2.0401 -0.0047
 6475SOL     OW21418   3.560   4.644   8.503 -0.0589  0.0676 -0.1501
 6475SOL    HW121419   3.566   4.630   8.598  0.0973  1.0152 -0.0151
 6475SOL    HW221420   3.466   4.655   8.487 -0.1860 -1.0821 -0.2596
 6476SOL     OW21421   3.497   0.078   0.684 -0.3381 -0.7943  0.5672
 6476SOL    HW121422   3.580   0.031   0.697 -0.0675 -0.1606  1.2083
 6476SOL    HW221423   3.483   0.125   0.767 -1.3459 -0.9028  0.4683
 6477SOL     OW21424   2.104   1.314   8.159 -0.3088 -0.4003 -0.7836
 6477SOL    HW121425   2.147   1.398   8.144 -1.5183  0.5467  0.6855
 6477SOL    HW221426   2.015   1.326   8.124 -0.3161 -1.2870 -1.1067
 6478SOL     OW21427   5.275   4.895   7.728  0.2293  0.0437  0.1625
 6478SOL    HW121428   5.284   4.847   7.811  1.3554  0.5380  0.3448
 6478SOL    HW221429   5.365   4.912   7.701 -0.0319 -1.5772 -2.0514
 6479SOL     OW21430   7.469   4.918   4.458 -0.0286  0.2508 -0.3391
 6479SOL    HW121431   7.382   4.943   4.487 -0.4406 -0.5985 -0.8167
 6479SOL    HW221432   7.500   4.992   4.406  0.0779  1.1080  0.9020
 6480SOL     OW21433   4.265   0.816   2.564  0.5220  0.1923 -1.0275
 6480SOL    HW121434   4.259   0.798   2.658 -1.1677  2.2335 -0.6720
 6480SOL    HW221435   4.258   0.730   2.523 -0.4270 -0.6016  0.6799
 6481SOL     OW21436   7.461   5.379   2.889 -0.2641  0.4151  0.5226
 6481SOL    HW121437   7.436   5.362   2.979  0.7918 -0.2951  0.7047
 6481SOL    HW221438   7.488   5.471   2.888  2.5129 -0.2853  1.6615
 6482SOL     OW21439   7.099   8.331   0.414  0.3042 -0.4914  0.1534
 6482SOL    HW121440   7.079   8.251   0.367 -0.2146  0.8755 -2.1330
 6482SOL    HW221441   7.195   8.333   0.419  0.4646 -0.1466 -1.9983
 6483SOL     OW21442   5.245   5.319   2.949  0.1484 -0.1541 -0.7304
 6483SOL    HW121443   5.306   5.390   2.968 -0.2613 -0.0809  0.3791
 6483SOL    HW221444   5.168   5.338   3.003 -0.1110 -1.2478 -0.6832
 6484SOL     OW21445   0.104   0.371   0.289  0.2348 -0.1390  0.2567
 6484SOL    HW121446   0.161   0.340   0.220  0.7579  0.5449  0.3675
 6484SOL    HW221447   0.140   0.457   0.313 -0.0653 -0.2678  1.2189
 6485SOL     OW21448   5.046   7.133   6.755 -0.6854 -0.1371 -0.3987
 6485SOL    HW121449   5.062   7.133   6.660 -0.2272 -0.6768 -0.3269
 6485SOL    HW221450   5.128   7.104   6.793 -0.5483  1.0247  0.2368
 6486SOL     OW21451   1.905   0.934   6.256 -0.4530  0.3487 -0.0023
 6486SOL    HW121452   1.964   0.986   6.312 -1.3408  0.6947  0.6420
 6486SOL    HW221453   1.818   0.948   6.294 -0.9465 -0.1966 -0.9034
 6487SOL     OW21454   4.345   8.184   8.016 -0.3456 -0.4314  0.0381
 6487SOL    HW121455   4.283   8.234   8.069 -0.9455 -1.6981  0.5802
 6487SOL    HW221456   4.394   8.250   7.967 -2.6348  0.6016 -1.0008
 6488SOL     OW21457   0.656   0.909   5.004  0.3725  0.3725 -0.3175
 6488SOL    HW121458   0.647   0.967   5.079  1.3359 -1.3264  1.1846
 6488SOL    HW221459   0.581   0.850   5.010  1.3069 -0.8022  0.3177
 6489SOL     OW21460   0.573   0.831   1.287 -0.4912  0.8691 -0.1121
 6489SOL    HW121461   0.619   0.799   1.365 -2.0677 -0.5491  0.2917
 6489SOL    HW221462   0.617   0.786   1.214 -1.5835 -1.0425  0.3264
 6490SOL     OW21463   2.179   7.966   5.897 -0.1021 -0.4824  0.1229
 6490SOL    HW121464   2.171   7.893   5.835  0.3148  0.7221 -1.4113
 6490SOL    HW221465   2.253   7.942   5.953  0.9935 -0.5924 -1.3220
 6491SOL     OW21466   3.834   0.829   3.068 -0.5840  0.3887 -0.0921
 6491SOL    HW121467   3.794   0.912   3.040 -1.0314 -0.0884 -0.8932
 6491SOL    HW221468   3.794   0.763   3.012 -0.8588 -0.4904  1.1051
 6492SOL     OW21469   1.555   5.482   8.158  0.5645  0.2205 -0.5202
 6492SOL    HW121470   1.566   5.493   8.063 -1.8593  2.1173 -0.6646
 6492SOL    HW221471   1.625   5.421   8.183 -1.5342 -4.3781 -4.2644
 6493SOL     OW21472   6.738   7.187   0.573 -0.0946  0.5123  0.0935
 6493SOL    HW121473   6.815   7.243   0.585 -1.8065  3.1329 -0.2915
 6493SOL    HW221474   6.769   7.099   0.590  2.2771  1.7767  3.0996
 6494SOL     OW21475   6.102   2.875   5.700  0.0833  0.0308  0.1915
 6494SOL    HW121476   6.093   2.875   5.796 -2.5156 -1.9295  0.0548
 6494SOL    HW221477   6.071   2.962   5.674  1.0001  0.6556  1.1286
 6495SOL     OW21478   3.429   0.422   5.862 -0.2577  0.3963 -0.1921
 6495SOL    HW121479   3.367   0.360   5.902  1.1070  0.4833  2.2690
 6495SOL    HW221480   3.509   0.371   5.849 -0.3169  0.6876 -1.8788
 6496SOL     OW21481   6.733   2.863   0.714  0.5754 -0.0524  0.5980
 6496SOL    HW121482   6.758   2.771   0.717  0.1323 -0.1647  1.1301
 6496SOL    HW221483   6.792   2.903   0.651  0.0843 -0.9181 -0.4423
 6497SOL     OW21484   5.288   0.201   5.281 -0.7580 -0.9504 -0.1875
 6497SOL    HW121485   5.382   0.197   5.300 -0.6319  1.9856  0.2088
 6497SOL    HW221486   5.275   0.131   5.216  1.6767 -1.4630 -0.2570
 6498SOL     OW21487   1.054   2.871   8.452 -0.4156  0.1484 -0.0258
 6498SOL    HW121488   1.071   2.777   8.442  1.8238  0.3767  0.8919
 6498SOL    HW221489   1.111   2.913   8.388 -1.3421  0.8896 -0.3789
 6499SOL     OW21490   2.224   1.410   0.532 -0.2542  0.4551  0.7210
 6499SOL    HW121491   2.267   1.451   0.606 -0.8745 -0.2313  1.4844
 6499SOL    HW221492   2.281   1.337   0.508 -1.0974 -0.6866  1.9718
 6500SOL     OW21493   3.406   2.778   4.714 -0.4843 -0.0946 -0.2445
 6500SOL    HW121494   3.474   2.816   4.770 -0.5326 -1.1281  0.5408
 6500SOL    HW221495   3.452   2.751   4.635 -0.2964  0.7624 -0.4431
 6501SOL     OW21496   7.051   1.506   5.573  0.0001  0.3795  0.0476
 6501SOL    HW121497   6.987   1.451   5.620  1.7944 -1.5178  0.4345
 6501SOL    HW221498   7.069   1.578   5.633  0.1862 -0.5233  1.1145
 6502SOL     OW21499   6.156   0.765   6.725  0.3592  0.2205 -0.1201
 6502SOL    HW121500   6.223   0.723   6.778  0.3387 -0.0381 -0.2941
 6502SOL    HW221501   6.097   0.693   6.699  0.6253  0.2615 -0.8717
 6503SOL     OW21502   6.563   2.379   4.653  0.2748 -0.0048 -0.5477
 6503SOL    HW121503   6.628   2.414   4.592 -0.0430 -0.2628 -1.0431
 6503SOL    HW221504   6.479   2.399   4.612  0.0746 -0.9228 -0.6140
 6504SOL     OW21505   4.490   0.406   2.298 -0.0747 -0.0097 -0.2803
 6504SOL    HW121506   4.430   0.459   2.246 -0.7153 -0.8975 -0.4753
 6504SOL    HW221507   4.551   0.469   2.336 -1.3688  0.9797  0.2392
 6505SOL     OW21508   2.124   4.295   5.205  0.0509 -0.0654  0.2552
 6505SOL    HW121509   2.137   4.215   5.154 -1.1792 -0.5953  0.7386
 6505SOL    HW221510   2.033   4.320   5.189 -0.3177 -0.1341  2.0025
 6506SOL     OW21511   0.179   2.640   6.142 -0.1594 -0.1006 -0.1892
 6506SOL    HW121512   0.119   2.576   6.104 -0.8820  0.9612 -0.8940
 6506SOL    HW221513   0.257   2.637   6.086  0.5597 -1.5793  0.8076
 6507SOL     OW21514   7.280   6.890   5.334  0.1422  0.7176 -0.1707
 6507SOL    HW121515   7.212   6.934   5.282 -3.9249 -1.2919  2.8692
 6507SOL    HW221516   7.301   6.952   5.403  2.4905  1.7853 -1.7196
 6508SOL     OW21517   2.602   6.305   3.683  0.4827 -0.0132 -0.4882
 6508SOL    HW121518   2.545   6.382   3.672 -0.6219 -0.6543  0.5033
 6508SOL    HW221519   2.663   6.310   3.610 -0.6000  0.9292 -1.3721
 6509SOL     OW21520   2.640   8.336   4.117 -0.4132  0.2501 -0.0175
 6509SOL    HW121521   2.732   8.344   4.143 -0.8576  0.7990  1.4723
 6509SOL    HW221522   2.639   8.259   4.060  1.1939  1.0660 -1.2358
 6510SOL     OW21523   8.485   4.581   7.419  0.1928  0.3749  0.1857
 6510SOL    HW121524   8.544   4.578   7.344  0.7673 -0.8112  0.6497
 6510SOL    HW221525   8.438   4.498   7.416 -1.2593  1.1731  0.0027
 6511SOL     OW21526   0.279   2.046   7.542 -0.1461 -0.0797 -0.0351
 6511SOL    HW121527   0.208   2.017   7.600  0.5566  0.3050  1.0440
 6511SOL    HW221528   0.268   2.141   7.538  0.1614 -0.0441 -0.0441
 6512SOL     OW21529   7.610   2.369   1.317 -0.2139  0.2290  0.1335
 6512SOL    HW121530   7.555   2.371   1.395  2.6339  3.9222  2.4058
 6512SOL    HW221531   7.643   2.459   1.309  0.5736 -0.2072 -4.7721
 6513SOL     OW21532   2.139   5.941   6.777  0.4330  0.2676 -0.1324
 6513SOL    HW121533   2.219   5.919   6.824  1.0068  0.2761 -1.0788
 6513SOL    HW221534   2.157   6.027   6.739  0.4142 -0.2296 -1.2986
 6514SOL     OW21535   0.706   2.393   5.709 -0.3730 -0.2774 -0.2919
 6514SOL    HW121536   0.689   2.305   5.742  0.2374 -0.3034 -0.0253
 6514SOL    HW221537   0.672   2.393   5.620 -1.3449 -0.4485  0.0705
 6515SOL     OW21538   8.101   8.182   3.294  0.6612 -0.3999  0.0233
 6515SOL    HW121539   8.094   8.175   3.389  1.8041  1.3767  0.2935
 6515SOL    HW221540   8.037   8.248   3.270  3.5702  2.7932  0.2812
 6516SOL     OW21541   2.150   7.663   4.542  0.3836  0.3981  0.3700
 6516SOL    HW121542   2.201   7.729   4.496  0.3800 -0.1106 -0.3738
 6516SOL    HW221543   2.075   7.712   4.577  0.6139  0.8704  0.2124
 6517SOL     OW21544   3.531   0.711   1.999  0.1587 -0.0185 -0.5107
 6517SOL    HW121545   3.459   0.661   2.035 -0.4324  0.4943 -0.9556
 6517SOL    HW221546   3.588   0.729   2.073 -0.7861  0.6015  0.0827
 6518SOL     OW21547   4.331   1.446   5.160  0.0704 -0.1961 -0.1955
 6518SOL    HW121548   4.306   1.370   5.211  0.3994  0.7262  1.4027
 6518SOL    HW221549   4.262   1.510   5.176 -0.6092 -0.3795 -2.1296
 6519SOL     OW21550   3.063   6.680   5.858  0.1697  0.0984  0.4144
 6519SOL    HW121551   3.066   6.693   5.953 -0.7555 -0.9934  0.6085
 6519SOL    HW221552   3.114   6.600   5.843 -1.7071 -1.1298  0.3003
 6520SOL     OW21553   2.930   8.464   5.133 -0.0295  0.0523 -0.0128
 6520SOL    HW121554   2.871   8.467   5.058 -0.5565  0.5536  0.4102
 6520SOL    HW221555   2.905   8.384   5.179  0.0273 -0.0482 -0.1555
 6521SOL     OW21556   6.529   3.827   7.753 -0.4101 -0.2123 -0.3007
 6521SOL    HW121557   6.544   3.891   7.822 -1.6774 -0.1696 -0.0360
 6521SOL    HW221558   6.561   3.744   7.789  0.8012  0.1653 -0.4637
 6522SOL     OW21559   3.993   1.147   3.517  0.2857  0.0658 -0.6425
 6522SOL    HW121560   3.932   1.217   3.541  0.0319  0.6140 -2.7122
 6522SOL    HW221561   4.075   1.192   3.499  0.8912 -0.4982  0.5894
 6523SOL     OW21562   0.439   6.175   8.155  0.4555  0.1986 -0.5076
 6523SOL    HW121563   0.470   6.187   8.245  0.8213 -0.7097 -0.4964
 6523SOL    HW221564   0.353   6.216   8.153  0.2264 -0.2134  0.4103
 6524SOL     OW21565   4.175   8.182   3.221  0.0941  0.0624 -0.9757
 6524SOL    HW121566   4.095   8.234   3.231 -0.6006 -1.3410  1.7630
 6524SOL    HW221567   4.164   8.110   3.283  2.6839 -1.2317 -1.9035
 6525SOL     OW21568   1.339   1.638   7.907  0.5135 -0.3567  0.4415
 6525SOL    HW121569   1.385   1.721   7.895  1.9601 -1.0188  1.1987
 6525SOL    HW221570   1.351   1.618   8.000 -2.5531  0.1280  1.0619
 6526SOL     OW21571   7.772   5.239   4.520 -0.0583  0.1457  0.2494
 6526SOL    HW121572   7.856   5.242   4.566  0.0512  1.6378 -0.0205
 6526SOL    HW221573   7.795   5.251   4.428 -0.2788 -2.7560 -0.2982
 6527SOL     OW21574   4.840   1.394   5.368 -0.8489 -0.4286  0.0866
 6527SOL    HW121575   4.832   1.306   5.406 -0.0302 -0.1443  0.9883
 6527SOL    HW221576   4.913   1.387   5.307 -0.7159 -0.3532  0.2361
 6528SOL     OW21577   0.058   7.447   3.499 -0.3221  0.0317 -0.0111
 6528SOL    HW121578   0.143   7.404   3.502 -2.1254 -3.8775  0.7744
 6528SOL    HW221579   0.047   7.474   3.407  0.7760 -1.6272 -0.6563
 6529SOL     OW21580   6.804   3.878   6.255  0.3417  0.0521  0.3219
 6529SOL    HW121581   6.725   3.825   6.248 -0.6804  1.5963 -0.6277
 6529SOL    HW221582   6.781   3.948   6.316  0.6244  1.0383 -0.6585
 6530SOL     OW21583   5.880   6.721   3.118 -0.2377 -0.2859  0.3696
 6530SOL    HW121584   5.968   6.746   3.088 -0.8092  1.1961 -0.1595
 6530SOL    HW221585   5.854   6.651   3.058  0.0044  0.2921 -0.4349
 6531SOL     OW21586   3.164   7.167   3.903 -0.2111  0.4062 -0.1221
 6531SOL    HW121587   3.090   7.158   3.962  0.3517  0.2893  0.5856
 6531SOL    HW221588   3.238   7.186   3.961  0.5383 -0.6582 -0.6961
 6532SOL     OW21589   5.609   3.333   0.225 -0.6575 -0.0660  0.2389
 6532SOL    HW121590   5.563   3.396   0.170 -0.0997  0.3163  0.2086
 6532SOL    HW221591   5.591   3.248   0.184 -1.1739  0.0956  0.1188
 6533SOL     OW21592   0.423   1.879   7.352  0.2647 -0.3897 -0.0004
 6533SOL    HW121593   0.383   1.950   7.404  1.2411  0.5490 -0.4974
 6533SOL    HW221594   0.363   1.805   7.363 -0.9504  0.6024  0.2902
 6534SOL     OW21595   7.843   2.538   2.615  0.3843 -0.0213 -0.1174
 6534SOL    HW121596   7.758   2.507   2.647 -0.1857  0.9618 -0.6548
 6534SOL    HW221597   7.829   2.557   2.522  1.1917  0.1502 -0.2135
 6535SOL     OW21598   7.120   1.275   5.727  0.5628  0.5799  0.2549
 6535SOL    HW121599   7.170   1.355   5.712  0.2915  0.4464 -1.5952
 6535SOL    HW221600   7.134   1.255   5.819  3.4051  0.8879 -0.0421
 6536SOL     OW21601   3.754   8.382   5.495  0.3186  0.0113 -0.0663
 6536SOL    HW121602   3.839   8.402   5.533  0.5679  1.2245 -1.1756
 6536SOL    HW221603   3.709   8.467   5.490 -1.0200 -0.6227  0.6248
 6537SOL     OW21604   3.808   3.001   3.491  0.8516  0.4063 -0.1974
 6537SOL    HW121605   3.862   2.940   3.542 -1.9680 -0.9617  1.3656
 6537SOL    HW221606   3.778   2.949   3.416  0.5367  0.7087 -0.2792
 6538SOL     OW21607   0.143   1.557   0.412 -0.1473 -0.1630 -0.1183
 6538SOL    HW121608   0.056   1.585   0.385  0.9035  3.1883 -0.5441
 6538SOL    HW221609   0.162   1.609   0.490  1.5763 -0.5254 -0.2515
 6539SOL     OW21610   4.822   7.129   2.931 -0.3291 -0.2996  0.1839
 6539SOL    HW121611   4.875   7.190   2.879 -0.8346  0.1956  0.2453
 6539SOL    HW221612   4.834   7.158   3.022  0.2386 -0.9210  0.3123
 6540SOL     OW21613   1.688   7.272   6.090 -0.7043  0.1412 -0.3677
 6540SOL    HW121614   1.731   7.330   6.027 -1.4043 -0.3893 -1.3722
 6540SOL    HW221615   1.651   7.330   6.155  0.0744  0.7052 -0.4204
 6541SOL     OW21616   3.015   8.522   8.486  0.2164 -0.4620 -0.8558
 6541SOL    HW121617   3.084   8.466   8.450  0.1585  0.1165 -1.9098
 6541SOL    HW221618   3.062   8.596   8.524  0.1882  1.5235 -4.2725
 6542SOL     OW21619   2.388   7.782   1.394 -0.0190  0.5788 -0.2060
 6542SOL    HW121620   2.456   7.838   1.356  0.2803  0.4613  0.1503
 6542SOL    HW221621   2.307   7.830   1.379 -0.2974 -0.7076 -3.4573
 6543SOL     OW21622   4.643   5.196   1.059  0.1465 -0.1569 -0.4182
 6543SOL    HW121623   4.629   5.209   0.965  2.0714 -0.1817 -0.7511
 6543SOL    HW221624   4.658   5.102   1.069  3.3900  0.2009 -0.7045
 6544SOL     OW21625   0.026   2.822   2.458 -0.2754  0.0720  0.2207
 6544SOL    HW121626   0.015   2.761   2.531  1.6357 -0.1071  0.3983
 6544SOL    HW221627   0.047   2.906   2.500  0.8505 -0.0379 -0.0828
 6545SOL     OW21628   0.741   6.870   0.174  0.4807 -0.1527  0.1404
 6545SOL    HW121629   0.810   6.918   0.129  0.0159  0.3598 -0.0485
 6545SOL    HW221630   0.703   6.814   0.106  1.1522 -0.9475  0.4079
 6546SOL     OW21631   6.013   4.276   2.671 -0.5795 -0.3220 -0.3175
 6546SOL    HW121632   6.027   4.210   2.739  2.4771  0.1108 -0.4005
 6546SOL    HW221633   6.075   4.254   2.602 -0.6793  1.6191 -1.1050
 6547SOL     OW21634   1.386   8.630   4.713  0.0752 -0.0309  0.3603
 6547SOL    HW121635   1.344   8.559   4.761  0.1057  0.9591  1.9242
 6547SOL    HW221636   1.480   8.617   4.727  0.0526  1.7959  3.0636
 6548SOL     OW21637   5.686   5.633   0.578 -0.1765  0.7392  0.5022
 6548SOL    HW121638   5.656   5.717   0.543  0.1010  0.4088 -0.5650
 6548SOL    HW221639   5.759   5.656   0.635  1.1764  1.0969 -1.2893
 6549SOL     OW21640   2.045   2.878   0.204  0.7386 -0.1501 -0.7684
 6549SOL    HW121641   2.128   2.840   0.174  1.2615 -0.1637  0.6396
 6549SOL    HW221642   2.053   2.882   0.299  0.3142  2.6560 -0.7765
 6550SOL     OW21643   2.475   5.184   1.929 -0.2245  0.3633 -0.3249
 6550SOL    HW121644   2.526   5.109   1.960  0.2910  1.4690  1.6732
 6550SOL    HW221645   2.390   5.175   1.971 -0.2328  0.7881 -0.2479
 6551SOL     OW21646   7.457   3.476   8.574 -0.1254 -0.0164 -0.1100
 6551SOL    HW121647   7.443   3.508   8.663  0.3262  0.7578 -0.3061
 6551SOL    HW221648   7.411   3.538   8.518  0.9595  0.4441 -0.5136
 6552SOL     OW21649   0.837   3.118   2.449 -0.7483 -0.1469  0.1823
 6552SOL    HW121650   0.913   3.071   2.483 -0.1053  0.2052 -0.7313
 6552SOL    HW221651   0.822   3.189   2.512  0.3246  0.4012 -0.1527
 6553SOL     OW21652   0.066   2.967   5.416 -0.4037  0.2521  0.2404
 6553SOL    HW121653   0.068   2.920   5.333 -0.2380  1.4061 -0.4127
 6553SOL    HW221654   0.103   2.905   5.479  0.0075 -0.4165 -0.6395
 6554SOL     OW21655   7.527   3.581   0.649  0.5877 -0.4957 -0.1556
 6554SOL    HW121656   7.455   3.633   0.613 -0.8246  0.6361  3.7907
 6554SOL    HW221657   7.484   3.506   0.690  1.6029  0.1053  2.1456
 6555SOL     OW21658   7.335   3.374   8.176  0.6019  0.3911 -0.8358
 6555SOL    HW121659   7.331   3.469   8.170 -0.7261  0.4387  0.4090
 6555SOL    HW221660   7.293   3.342   8.096 -0.6066  0.8628 -0.3941
 6556SOL     OW21661   7.398   4.357   1.757  0.0573  0.6260 -0.2890
 6556SOL    HW121662   7.404   4.269   1.793  1.5529  1.5408  1.8813
 6556SOL    HW221663   7.430   4.348   1.667 -1.9505 -1.3895 -0.8873
 6557SOL     OW21664   8.818   7.230   6.738 -0.1740  0.0213 -0.2698
 6557SOL    HW121665   8.894   7.263   6.691 -0.1605  0.2394 -0.0950
 6557SOL    HW221666   8.821   7.135   6.725  0.2609  0.0060 -0.0649
 6558SOL     OW21667   6.666   4.773   6.180 -0.3559 -0.2649  0.1801
 6558SOL    HW121668   6.584   4.767   6.229 -0.8327 -3.0431 -0.7830
 6558SOL    HW221669   6.730   4.727   6.235  0.2416  0.6481  0.2705
 6559SOL     OW21670   7.423   5.729   0.949  0.4811  0.0177 -0.2667
 6559SOL    HW121671   7.338   5.708   0.912  1.8847 -2.0962 -2.6176
 6559SOL    HW221672   7.484   5.723   0.875  2.7683  0.8123  1.4217
 6560SOL     OW21673   2.063   7.027   2.399  0.2916 -0.6033  0.3749
 6560SOL    HW121674   2.097   7.092   2.337 -0.3809 -1.3147 -0.7666
 6560SOL    HW221675   2.015   6.964   2.345 -1.1573 -0.7170  1.7315
 6561SOL     OW21676   0.189   1.245   7.523 -0.8429  0.0567  0.0441
 6561SOL    HW121677   0.138   1.182   7.472 -0.1898 -0.4836  0.0478
 6561SOL    HW221678   0.242   1.192   7.583 -0.8869  0.6420  0.6201
 6562SOL     OW21679   7.466   8.814   2.267  0.1019 -0.1847 -0.2917
 6562SOL    HW121680   7.490   8.774   2.351 -0.3473  0.1529  0.0023
 6562SOL    HW221681   7.472   8.909   2.283 -4.2604  0.1393  0.7601
 6563SOL     OW21682   5.919   8.413   1.635 -0.5973  0.0437 -0.5733
 6563SOL    HW121683   5.973   8.489   1.614  1.6116 -0.6472  2.0771
 6563SOL    HW221684   5.833   8.450   1.656 -0.2741  1.5009 -1.6341
 6564SOL     OW21685   5.188   1.760   4.284 -0.1097 -0.3624  0.1606
 6564SOL    HW121686   5.250   1.693   4.314  0.0753  0.3187  1.3800
 6564SOL    HW221687   5.194   1.829   4.351 -1.1772  0.3292 -0.4382
 6565SOL     OW21688   5.540   7.329   0.015 -0.4783 -0.1776  0.2206
 6565SOL    HW121689   5.631   7.307  -0.005 -0.1950 -0.8872  2.0703
 6565SOL    HW221690   5.546   7.394   0.085 -1.3910  0.0949  0.0510
 6566SOL     OW21691   3.637   6.720   5.405 -0.4301  0.7088 -0.1482
 6566SOL    HW121692   3.655   6.806   5.369 -1.0889  0.7203 -0.4669
 6566SOL    HW221693   3.691   6.714   5.484 -0.2965  1.3605 -0.1922
 6567SOL     OW21694   5.833   2.668   2.295 -0.3170 -1.2359 -0.2876
 6567SOL    HW121695   5.851   2.626   2.211 -0.3434 -2.2420  0.1881
 6567SOL    HW221696   5.773   2.607   2.339  0.9782 -1.5543  1.1157
 6568SOL     OW21697   1.261   4.034   0.981  0.5501 -0.2218 -0.0336
 6568SOL    HW121698   1.287   4.068   0.896 -0.5983  0.0284 -0.3024
 6568SOL    HW221699   1.184   3.980   0.963  0.1689  0.0017  0.8602
 6569SOL     OW21700   2.285   7.738   3.318 -0.4663 -0.1498  0.0937
 6569SOL    HW121701   2.236   7.688   3.383  0.7836 -1.4054  0.1186
 6569SOL    HW221702   2.228   7.739   3.241 -1.9865  1.4013  1.1698
 6570SOL     OW21703   4.886   3.088   8.051  0.2661  0.2896  0.4668
 6570SOL    HW121704   4.869   3.107   7.958 -0.8524 -0.9819  0.3766
 6570SOL    HW221705   4.802   3.054   8.083  1.0293 -0.5561  1.6073
 6571SOL     OW21706   6.873   0.706   4.145 -0.7778  0.8003 -0.0889
 6571SOL    HW121707   6.805   0.761   4.183  0.7328  1.8411  1.2275
 6571SOL    HW221708   6.951   0.723   4.198  0.6657  0.0643 -1.8533
 6572SOL     OW21709   1.431   6.509   3.394 -0.3883  0.5461 -0.4000
 6572SOL    HW121710   1.409   6.592   3.351  0.4207  1.5768  1.0952
 6572SOL    HW221711   1.511   6.528   3.443  0.1907 -1.3269 -0.5595
 6573SOL     OW21712   4.901   1.227   0.670 -0.2360  0.3033 -0.1051
 6573SOL    HW121713   4.838   1.158   0.693  0.5273 -0.4292 -0.1704
 6573SOL    HW221714   4.848   1.307   0.666 -0.7634  0.1576  2.3405
 6574SOL     OW21715   0.107   4.154   8.573  0.4127  0.8216 -0.1134
 6574SOL    HW121716   0.058   4.104   8.638 -1.0963  1.9526 -0.3072
 6574SOL    HW221717   0.171   4.093   8.538 -1.5130 -1.0798 -0.5411
 6575SOL     OW21718   5.134   2.227   8.823 -0.4982 -0.1402 -0.3653
 6575SOL    HW121719   5.058   2.211   8.878  0.7036 -1.1848  1.0758
 6575SOL    HW221720   5.155   2.319   8.836 -0.5862 -0.2334  0.4704
 6576SOL     OW21721   0.755   7.911   7.917 -0.2061 -0.2688 -0.5812
 6576SOL    HW121722   0.810   7.908   7.995 -0.6030  3.1616 -0.0037
 6576SOL    HW221723   0.687   7.846   7.932  0.9058 -1.1404  0.9357
 6577SOL     OW21724   3.327   5.436   8.399  0.4215  0.1896  0.2533
 6577SOL    HW121725   3.380   5.422   8.478 -0.6077 -1.9424  0.6388
 6577SOL    HW221726   3.275   5.356   8.391  0.0214  0.6244 -2.2349
 6578SOL     OW21727   4.736   3.513   2.311 -0.2689 -0.1270 -0.2705
 6578SOL    HW121728   4.750   3.442   2.374 -0.9110 -0.5960 -0.6454
 6578SOL    HW221729   4.788   3.488   2.235 -0.1520  0.0200 -0.2379
 6579SOL     OW21730   6.412   5.044   0.702  0.3406 -0.4227 -0.1109
 6579SOL    HW121731   6.369   4.984   0.762 -2.1065 -1.1381 -2.3935
 6579SOL    HW221732   6.394   5.131   0.738 -2.3209 -0.7556 -0.4291
 6580SOL     OW21733   6.392   6.471   5.366 -0.2031 -0.4043  0.1282
 6580SOL    HW121734   6.404   6.414   5.291 -0.6732 -0.7436  0.3041
 6580SOL    HW221735   6.476   6.517   5.376 -0.2210 -0.1735 -0.7491
 6581SOL     OW21736   1.920   6.655   0.300  0.1647  0.0228 -0.1931
 6581SOL    HW121737   1.827   6.633   0.292  0.1595  0.6971 -2.7199
 6581SOL    HW221738   1.930   6.684   0.391 -1.8435 -1.0843  0.4355
 6582SOL     OW21739   6.696   1.830   3.187 -0.1433  0.0223  0.3084
 6582SOL    HW121740   6.663   1.912   3.222 -0.8472  0.3519 -1.0742
 6582SOL    HW221741   6.712   1.776   3.264 -1.6133  0.7137  1.1367
 6583SOL     OW21742   6.423   1.791   5.034  0.2584 -0.3433  0.3551
 6583SOL    HW121743   6.513   1.758   5.034 -0.1172 -1.3952  0.3566
 6583SOL    HW221744   6.369   1.714   5.054 -0.7922 -0.1722 -1.6051
 6584SOL     OW21745   3.120   7.251   1.596  0.1515 -0.0143  0.6161
 6584SOL    HW121746   3.113   7.182   1.662 -2.3764 -1.3157 -0.8819
 6584SOL    HW221747   3.038   7.300   1.603 -0.4644 -0.5595 -1.8902
 6585SOL     OW21748   2.344   5.146   6.430  0.0921  0.3549  0.2947
 6585SOL    HW121749   2.268   5.094   6.404  1.0556 -0.0852 -1.8746
 6585SOL    HW221750   2.338   5.151   6.525 -1.3292 -1.7159  0.3846
 6586SOL     OW21751   4.437   7.695   7.692  0.4353  0.0337 -0.0177
 6586SOL    HW121752   4.366   7.664   7.747  0.8917 -0.3224  0.3760
 6586SOL    HW221753   4.407   7.679   7.603  0.7591 -1.7853  0.1724
 6587SOL     OW21754   0.486   3.040   6.727 -0.1253 -0.3779 -0.7359
 6587SOL    HW121755   0.397   3.018   6.755  0.0787  0.1597  0.3917
 6587SOL    HW221756   0.542   2.976   6.770 -0.0874 -2.2725 -3.3352
 6588SOL     OW21757   0.909   7.032   6.864 -0.1595 -0.3205  0.4150
 6588SOL    HW121758   0.915   6.983   6.782 -2.5035 -0.1985  0.1188
 6588SOL    HW221759   0.937   6.970   6.931  1.6190 -0.4714 -0.4098
 6589SOL     OW21760   4.022   6.866   0.293 -0.7494 -0.4892  0.1052
 6589SOL    HW121761   3.965   6.939   0.318 -1.2938 -1.1097  0.7505
 6589SOL    HW221762   4.080   6.854   0.368 -0.3213 -0.3842 -0.2117
 6590SOL     OW21763   4.381   6.645   7.093  0.3193 -0.1246  0.2351
 6590SOL    HW121764   4.423   6.582   7.151 -0.4122 -0.5480  0.3221
 6590SOL    HW221765   4.424   6.728   7.113 -0.1888 -0.1738  1.6940
 6591SOL     OW21766   2.289   5.408   2.488  0.2510 -0.1770  0.4197
 6591SOL    HW121767   2.358   5.469   2.462  0.0900  0.4372  1.3645
 6591SOL    HW221768   2.278   5.350   2.413  1.8844 -0.3610  0.2930
 6592SOL     OW21769   8.283   1.716   0.592 -0.3851  0.7292  0.3480
 6592SOL    HW121770   8.368   1.759   0.578 -0.8270  1.5546  0.1637
 6592SOL    HW221771   8.222   1.788   0.605 -0.6804  0.1034  2.7897
 6593SOL     OW21772   3.288   7.529   1.919 -0.3064 -0.1876  0.3880
 6593SOL    HW121773   3.304   7.490   1.834 -0.3775 -0.4921  0.5104
 6593SOL    HW221774   3.374   7.558   1.950 -0.5046  1.4723 -0.5163
 6594SOL     OW21775   5.574   8.892   1.976 -0.4333  0.0835  0.2874
 6594SOL    HW121776   5.634   8.929   1.911 -0.1895 -0.9513 -0.0981
 6594SOL    HW221777   5.518   8.833   1.925  0.0541 -1.0831  1.0631
 6595SOL     OW21778   1.669   1.608   0.945 -0.4138  0.2611  0.4088
 6595SOL    HW121779   1.646   1.687   0.995 -2.1150  0.4215 -0.5493
 6595SOL    HW221780   1.591   1.553   0.950 -0.5910  0.2229 -1.9132
 6596SOL     OW21781   3.796   6.702   0.422 -0.1424 -0.3382 -0.1152
 6596SOL    HW121782   3.886   6.725   0.395 -0.5167  0.8768 -0.4271
 6596SOL    HW221783   3.768   6.776   0.476 -0.4104 -1.4491  1.3222
 6597SOL     OW21784   8.762   0.695   6.288  0.1316 -0.3535  0.1103
 6597SOL    HW121785   8.842   0.664   6.330 -0.2522  0.1409  1.2443
 6597SOL    HW221786   8.732   0.767   6.343 -2.0905 -1.7076  0.8179
 6598SOL     OW21787   5.864   6.983   7.653 -0.1901  0.1552  0.3311
 6598SOL    HW121788   5.900   6.932   7.725 -1.1076 -0.4816  0.3539
 6598SOL    HW221789   5.770   6.982   7.668 -0.3083  0.9036 -0.3049
 6599SOL     OW21790   0.878   7.295   0.610  0.4037 -0.1729 -0.1228
 6599SOL    HW121791   0.959   7.245   0.622 -0.3869 -1.3069  0.6108
 6599SOL    HW221792   0.904   7.369   0.555  1.9635 -0.4543  0.1896
 6600SOL     OW21793   7.685   1.912   3.522 -1.0953  0.1101  0.4121
 6600SOL    HW121794   7.711   1.902   3.431 -0.7335  0.7798  0.4393
 6600SOL    HW221795   7.589   1.920   3.518 -1.5659 -3.7755  0.4306
 6601SOL     OW21796   2.373   1.739   7.955  0.1327 -0.1209 -0.2657
 6601SOL    HW121797   2.464   1.764   7.938 -0.1519  0.8912 -0.3739
 6601SOL    HW221798   2.327   1.757   7.873 -0.2257 -0.3270 -0.1127
 6602SOL     OW21799   5.493   1.108   6.219  0.1273 -0.4529 -0.1700
 6602SOL    HW121800   5.413   1.105   6.271 -1.5114  0.8200 -2.4530
 6602SOL    HW221801   5.547   1.174   6.262 -0.8809  0.0580  0.3490
 6603SOL     OW21802   7.444   4.991   4.777 -0.1147 -0.5919 -0.4413
 6603SOL    HW121803   7.536   5.016   4.784  0.1579 -1.5473 -0.4284
 6603SOL    HW221804   7.401   5.067   4.737  0.4996  0.2224  0.4178
 6604SOL     OW21805   2.792   8.889   3.706  0.2628  0.3257  0.1519
 6604SOL    HW121806   2.809   8.932   3.622 -1.4272  2.5401  0.8238
 6604SOL    HW221807   2.828   8.801   3.697  0.8136  0.7642 -2.6000
 6605SOL     OW21808   5.882   7.365   4.565 -0.0511  0.2570 -0.3106
 6605SOL    HW121809   5.880   7.398   4.655  0.4434  1.8138 -0.8339
 6605SOL    HW221810   5.811   7.412   4.521  0.1726  0.0440 -0.9058
 6606SOL     OW21811   3.924   3.700   0.603  0.4048 -0.2037 -0.3713
 6606SOL    HW121812   4.006   3.729   0.562 -0.4147 -0.2314 -2.1050
 6606SOL    HW221813   3.874   3.661   0.531 -1.3219  0.1972  0.5717
 6607SOL     OW21814   2.973   7.087   8.108 -0.4962  0.3916 -0.2689
 6607SOL    HW121815   2.994   7.040   8.189 -1.0762  0.4403 -0.0906
 6607SOL    HW221816   3.050   7.143   8.093 -0.0259 -0.2369 -0.2151
 6608SOL     OW21817   5.199   5.060   7.517 -0.0187 -0.4037 -0.2800
 6608SOL    HW121818   5.210   5.015   7.601  1.6619  0.6980  0.1427
 6608SOL    HW221819   5.220   4.995   7.451 -0.3341 -0.9990  0.2010
 6609SOL     OW21820   0.092   7.621   0.079  0.3947 -0.3447 -0.0885
 6609SOL    HW121821   0.136   7.640   0.163  4.0831  0.2551 -1.9515
 6609SOL    HW221822   0.057   7.705   0.051  1.4643  0.0495 -0.3025
 6610SOL     OW21823   3.693   4.443   5.389  0.0841  0.6572 -0.0003
 6610SOL    HW121824   3.756   4.412   5.324 -0.0003  1.4944 -0.5099
 6610SOL    HW221825   3.617   4.387   5.378  0.2622  0.4710 -0.2836
 6611SOL     OW21826   1.446   5.965   4.842 -0.3914 -0.0624  0.3644
 6611SOL    HW121827   1.414   5.923   4.762 -2.0739  0.4929  0.7118
 6611SOL    HW221828   1.528   5.920   4.861 -0.2427 -0.5822 -1.3625
 6612SOL     OW21829   0.328   4.448   2.133 -0.4716 -0.0742  0.0297
 6612SOL    HW121830   0.255   4.475   2.077 -0.5034 -0.3201 -0.0486
 6612SOL    HW221831   0.405   4.489   2.094 -0.0910 -2.2052 -1.6850
 6613SOL     OW21832   7.428   8.856   0.477  0.3305 -0.6003  0.3687
 6613SOL    HW121833   7.492   8.807   0.425  0.1268 -1.0081  0.4980
 6613SOL    HW221834   7.378   8.789   0.522 -0.1325 -0.2776  0.3360
 6614SOL     OW21835   1.704   2.923   5.348 -0.5400  0.3703 -0.3767
 6614SOL    HW121836   1.677   2.936   5.439 -0.4008 -0.0671 -0.2687
 6614SOL    HW221837   1.763   2.996   5.329  1.6327 -0.9745  0.7618
 6615SOL     OW21838   6.836   2.295   6.226  0.2947 -0.2513 -0.0619
 6615SOL    HW121839   6.761   2.265   6.278  2.4654 -2.0008  2.2920
 6615SOL    HW221840   6.840   2.389   6.243 -2.0125  0.1516 -1.2608
 6616SOL     OW21841   3.153   5.408   1.120 -0.6822 -0.0793  0.3444
 6616SOL    HW121842   3.127   5.498   1.097 -0.6429 -0.0693  0.3404
 6616SOL    HW221843   3.076   5.372   1.165 -1.0687 -0.3823 -0.5381
 6617SOL     OW21844   5.016   2.871   2.486 -0.1251  0.2973  1.3202
 6617SOL    HW121845   5.029   2.952   2.535 -1.0848  1.3239 -0.0741
 6617SOL    HW221846   5.001   2.805   2.554  0.3758  1.3284  2.4718
 6618SOL     OW21847   3.889   2.635   7.378 -0.1458  0.7107  0.7331
 6618SOL    HW121848   3.859   2.545   7.366  3.0763 -0.2602 -1.2241
 6618SOL    HW221849   3.809   2.687   7.377 -1.9841 -1.9289 -0.0390
 6619SOL     OW21850   4.421   0.797   5.129  0.3437 -0.3916 -0.0547
 6619SOL    HW121851   4.387   0.881   5.158  1.3544  0.3612 -0.9702
 6619SOL    HW221852   4.432   0.746   5.210 -0.2530  0.3496  0.5084
 6620SOL     OW21853   0.444   1.923   5.132  0.4568  0.0578  0.0809
 6620SOL    HW121854   0.457   1.861   5.061 -0.2103  1.4197 -1.2696
 6620SOL    HW221855   0.369   1.976   5.105 -0.5868 -0.1012  2.3315
 6621SOL     OW21856   6.466   4.766   1.701 -0.3673  0.2073  0.2988
 6621SOL    HW121857   6.519   4.799   1.774  1.8732 -1.0824 -0.6203
 6621SOL    HW221858   6.469   4.671   1.710  1.0212 -0.0726 -2.0718
 6622SOL     OW21859   7.449   7.174   7.228 -0.7359 -0.0242  0.0289
 6622SOL    HW121860   7.411   7.230   7.161 -1.7381 -0.0267  0.5841
 6622SOL    HW221861   7.534   7.148   7.192 -1.6647 -0.8182 -1.6512
 6623SOL     OW21862   6.390   0.779   5.780  0.7051 -0.0754 -0.2453
 6623SOL    HW121863   6.315   0.835   5.760  0.4159 -0.6252 -0.7617
 6623SOL    HW221864   6.412   0.739   5.695  0.4731 -1.2433  0.2226
 6624SOL     OW21865   5.945   4.444   8.327  0.4895 -0.1411  0.3203
 6624SOL    HW121866   5.956   4.397   8.410  0.3311 -2.0114 -0.6639
 6624SOL    HW221867   6.032   4.447   8.290  0.7209  1.4973  0.9231
 6625SOL     OW21868   6.647   5.917   4.330  0.0574 -0.2108  0.0892
 6625SOL    HW121869   6.558   5.952   4.339 -0.8182 -2.4242  0.9928
 6625SOL    HW221870   6.638   5.843   4.270  1.4898  0.0976 -0.5425
 6626SOL     OW21871   1.538   3.693   5.947  0.1759  0.1890  0.3387
 6626SOL    HW121872   1.600   3.625   5.919  2.7057  1.7463  1.7866
 6626SOL    HW221873   1.528   3.679   6.041 -0.4179  0.9339  0.3942
 6627SOL     OW21874   0.470   1.953   5.852  0.2229 -0.6818  0.7769
 6627SOL    HW121875   0.565   1.967   5.852  0.2937 -1.0963  1.4055
 6627SOL    HW221876   0.460   1.859   5.838  0.0997 -1.4146  4.5306
 6628SOL     OW21877   4.064   7.881   1.584  0.1775 -0.4748  0.6854
 6628SOL    HW121878   4.133   7.893   1.519 -1.3156  0.9601 -0.7298
 6628SOL    HW221879   4.069   7.959   1.640  0.8835 -1.2753  1.7718
 6629SOL     OW21880   6.739   8.391   5.078  0.4996  0.1008  0.3173
 6629SOL    HW121881   6.789   8.325   5.125 -0.8214 -1.1647  0.0400
 6629SOL    HW221882   6.761   8.378   4.986  1.0107  0.7350  0.3488
 6630SOL     OW21883   6.092   8.037   7.303 -0.0193  0.4014 -0.1345
 6630SOL    HW121884   6.024   7.970   7.308 -1.2160  1.4846 -1.2946
 6630SOL    HW221885   6.172   7.989   7.281 -0.6319 -0.7578  0.1179
 6631SOL     OW21886   0.419   4.637   6.818  0.2563  0.1981  0.0291
 6631SOL    HW121887   0.457   4.553   6.793  0.7676  0.2209  0.7071
 6631SOL    HW221888   0.392   4.677   6.736 -1.7595 -1.4498 -0.1836
 6632SOL     OW21889   0.984   8.175   2.470 -0.2046 -0.7836 -0.1933
 6632SOL    HW121890   1.002   8.261   2.433 -1.9003 -0.6534 -0.8183
 6632SOL    HW221891   1.016   8.113   2.405 -1.8220 -0.5622 -1.2723
 6633SOL     OW21892   5.421   3.362   5.886  0.2529 -0.0299 -0.3270
 6633SOL    HW121893   5.382   3.351   5.973  0.3587 -2.3384 -0.5295
 6633SOL    HW221894   5.368   3.307   5.829  1.4900 -0.2327 -1.3157
 6634SOL     OW21895   0.913   7.869   0.091  0.4122 -0.4846 -0.1634
 6634SOL    HW121896   0.888   7.788   0.047  0.1339 -0.4466 -0.0795
 6634SOL    HW221897   0.976   7.842   0.158  0.9390 -0.5282 -0.6645
 6635SOL     OW21898   6.747   0.146   4.961 -0.8976 -0.2808 -0.0055
 6635SOL    HW121899   6.686   0.087   5.004  0.1852 -0.2469  1.6643
 6635SOL    HW221900   6.831   0.100   4.963 -0.2080  0.9387  0.6188
 6636SOL     OW21901   7.784   8.792   6.684 -0.2144 -0.3094  0.1679
 6636SOL    HW121902   7.754   8.757   6.769  2.1786 -0.0814  1.1835
 6636SOL    HW221903   7.775   8.887   6.693 -2.5117 -0.3510 -0.9293
 6637SOL     OW21904   6.586   4.736   7.627  0.2087 -0.5420 -0.0007
 6637SOL    HW121905   6.647   4.697   7.690  2.1832  0.7084 -1.0136
 6637SOL    HW221906   6.607   4.692   7.544 -0.8729 -0.6806 -0.2156
 6638SOL     OW21907   8.233   5.536   8.001 -0.3270 -0.4695  0.2483
 6638SOL    HW121908   8.326   5.555   7.991 -0.5900 -0.0318 -1.9910
 6638SOL    HW221909   8.230   5.456   8.053  1.1584  0.7975  2.4783
 6639SOL     OW21910   2.063   5.733   1.630  0.0236 -0.0171  0.2110
 6639SOL    HW121911   1.976   5.748   1.666 -0.5512  0.0507 -1.1516
 6639SOL    HW221912   2.122   5.776   1.691 -0.9730  0.7327  0.6760
 6640SOL     OW21913   5.314   8.214   8.808  0.2127  0.3198 -0.0810
 6640SOL    HW121914   5.250   8.179   8.871 -1.0252  1.4418 -0.6721
 6640SOL    HW221915   5.389   8.155   8.816 -0.9992 -1.2505  0.4196
 6641SOL     OW21916   0.655   6.174   5.130  0.0293  0.2753  0.4973
 6641SOL    HW121917   0.693   6.250   5.173  1.9952  0.3864 -1.3015
 6641SOL    HW221918   0.695   6.099   5.174 -0.1597  0.3127  0.7378
 6642SOL     OW21919   5.028   4.289   2.105  0.1537 -0.3877  0.4320
 6642SOL    HW121920   5.081   4.290   2.185  0.3059  0.5243  0.3338
 6642SOL    HW221921   4.960   4.224   2.123  0.8058 -0.9667  0.8845
 6643SOL     OW21922   0.303   8.482   3.545 -0.0110 -0.3219 -0.0927
 6643SOL    HW121923   0.261   8.407   3.505 -2.1901  0.0610  1.3227
 6643SOL    HW221924   0.272   8.557   3.494  1.5277 -0.2540 -1.0032
 6644SOL     OW21925   4.145   7.701   3.506  0.0805 -0.1869  0.4728
 6644SOL    HW121926   4.090   7.773   3.537  0.6249 -0.2577  1.6337
 6644SOL    HW221927   4.231   7.718   3.545  0.7304 -0.4243 -0.8077
 6645SOL     OW21928   8.330   7.020   8.184 -0.0950 -0.3122 -0.3785
 6645SOL    HW121929   8.253   7.063   8.145 -0.1957  0.9110  1.0735
 6645SOL    HW221930   8.405   7.065   8.145 -0.1578 -0.2269 -0.3998
 6646SOL     OW21931   0.065   2.154   7.190  0.3131 -0.2137  0.1676
 6646SOL    HW121932   0.045   2.247   7.197 -0.3565 -0.1629 -1.7435
 6646SOL    HW221933   0.129   2.148   7.119  0.0474 -1.2369 -0.0086
 6647SOL     OW21934   2.487   4.138   5.121  0.1109  0.2171 -0.1050
 6647SOL    HW121935   2.514   4.109   5.034  1.2781 -0.8727  0.5941
 6647SOL    HW221936   2.420   4.075   5.148  1.0261 -0.5327  0.4875
 6648SOL     OW21937   8.681   6.670   2.072 -0.1147  0.2663  0.1754
 6648SOL    HW121938   8.592   6.633   2.079 -0.2526  0.6305  0.3631
 6648SOL    HW221939   8.718   6.627   1.995 -0.1606 -0.4973  0.5683
 6649SOL     OW21940   0.459   0.064   7.649 -0.2085  0.0626 -0.2355
 6649SOL    HW121941   0.443  -0.015   7.700 -0.1584 -0.9317 -1.7153
 6649SOL    HW221942   0.428   0.044   7.561  2.4107  0.6180 -1.3940
 6650SOL     OW21943   5.958   2.016   4.532  0.2109  0.0959  0.0012
 6650SOL    HW121944   5.959   1.927   4.496  2.0538 -0.1964  0.6404
 6650SOL    HW221945   5.989   2.005   4.622 -0.0586  1.3335  0.2524
 6651SOL     OW21946   0.179   5.250   5.257  0.1524 -0.2446  0.3299
 6651SOL    HW121947   0.263   5.294   5.246 -0.8906  1.7590 -0.1724
 6651SOL    HW221948   0.161   5.211   5.171  0.9601 -1.4971  0.7029
 6652SOL     OW21949   7.024   6.589   6.002 -0.3175 -0.1694 -0.4854
 6652SOL    HW121950   7.045   6.500   5.972 -0.6524 -1.1495  1.9268
 6652SOL    HW221951   6.930   6.587   6.017 -0.5573  1.0636 -1.7426
 6653SOL     OW21952   4.154   1.647   8.393 -0.4007 -0.2476 -0.0023
 6653SOL    HW121953   4.191   1.593   8.324 -2.1223 -1.5412  0.0214
 6653SOL    HW221954   4.224   1.709   8.415  1.5471 -2.2594 -0.2119
 6654SOL     OW21955   7.888   0.711   5.501 -0.7227  0.2878  0.4373
 6654SOL    HW121956   7.957   0.698   5.565 -0.7497  0.0843  0.4274
 6654SOL    HW221957   7.807   0.695   5.549 -0.7371  0.0212  0.3270
 6655SOL     OW21958   1.624   1.397   2.375 -0.2451  0.3398  0.0166
 6655SOL    HW121959   1.543   1.418   2.422 -1.2816 -0.2663 -1.4169
 6655SOL    HW221960   1.639   1.304   2.394  0.1524  0.4653  0.3243
 6656SOL     OW21961   7.044   0.714   0.791 -0.0542  0.2976 -0.4200
 6656SOL    HW121962   7.097   0.780   0.835 -1.8265  0.8164  1.0321
 6656SOL    HW221963   6.980   0.764   0.740 -0.8792 -0.2828  0.0278
 6657SOL     OW21964   2.444   5.708   1.146 -0.0393  0.2316  0.1364
 6657SOL    HW121965   2.370   5.768   1.140  0.2911  0.6391  0.0430
 6657SOL    HW221966   2.518   5.764   1.169  0.7604  0.2719 -2.1967
 6658SOL     OW21967   5.757   3.037   6.770  0.5740  0.1780 -0.0088
 6658SOL    HW121968   5.802   3.089   6.836 -0.3213  0.7461  0.1708
 6658SOL    HW221969   5.746   3.096   6.695 -1.6774  0.7375  0.7017
 6659SOL     OW21970   1.670   1.374   0.556 -0.5692 -0.0914  0.6880
 6659SOL    HW121971   1.716   1.290   0.554 -0.7733 -0.3253  2.8673
 6659SOL    HW221972   1.738   1.439   0.576 -0.7209 -0.0414  1.0568
 6660SOL     OW21973   3.106   4.983   3.147 -0.4211 -0.4171  0.0958
 6660SOL    HW121974   3.028   5.035   3.167 -1.7562 -2.3031  0.1462
 6660SOL    HW221975   3.090   4.950   3.059 -1.2514 -3.3288  1.2173
 6661SOL     OW21976   8.397   4.635   4.880 -0.1732  0.5968 -0.3995
 6661SOL    HW121977   8.369   4.610   4.968  1.8906  2.0427  0.7348
 6661SOL    HW221978   8.354   4.571   4.823  0.2394 -1.8473  1.8245
 6662SOL     OW21979   7.570   1.044   3.165  0.1162 -0.6461  0.1235
 6662SOL    HW121980   7.613   1.006   3.088  2.0653  1.7970 -0.1284
 6662SOL    HW221981   7.499   1.097   3.130  2.2076  2.0775 -0.3463
 6663SOL     OW21982   1.187   8.827   1.866  0.1556 -0.6903  0.0568
 6663SOL    HW121983   1.174   8.753   1.925 -2.1085 -0.2405  0.2144
 6663SOL    HW221984   1.101   8.870   1.863  1.3039  1.7082 -0.3292
 6664SOL     OW21985   8.567   4.737   3.956 -0.1796 -0.1286 -0.0105
 6664SOL    HW121986   8.613   4.770   4.033  1.2291  0.9608 -1.2376
 6664SOL    HW221987   8.519   4.813   3.923 -0.2482 -0.4063 -0.5544
 6665SOL     OW21988   5.325   2.386   8.289 -0.4004 -0.4230  0.4647
 6665SOL    HW121989   5.240   2.401   8.249 -0.2370  0.0057  0.2738
 6665SOL    HW221990   5.307   2.379   8.383 -0.5917  0.0889  0.4668
 6666SOL     OW21991   2.705   5.139   2.935 -0.6317  0.5770 -0.1331
 6666SOL    HW121992   2.664   5.056   2.912 -1.9297  0.8283  1.1865
 6666SOL    HW221993   2.633   5.200   2.949  0.1857  1.2402  1.4736
 6667SOL     OW21994   4.340   2.726   2.858 -0.1945  0.1353 -0.1787
 6667SOL    HW121995   4.414   2.766   2.812 -0.6056 -0.7913 -1.7114
 6667SOL    HW221996   4.366   2.726   2.950  2.5692 -1.8477 -0.8396
 6668SOL     OW21997   4.167   3.228   5.165 -0.3548  0.1996  0.1142
 6668SOL    HW121998   4.196   3.282   5.239  0.6030 -0.7835  0.4948
 6668SOL    HW221999   4.098   3.172   5.202  1.0468 -1.2375  0.6677
 6669SOL     OW22000   0.244   4.989   1.421  0.1730  0.2674 -0.2602
 6669SOL    HW122001   0.295   4.934   1.362 -0.1016  0.5141 -0.7345
 6669SOL    HW222002   0.216   4.930   1.491  1.9201  0.3217  0.5558
 6670SOL     OW22003   4.957   6.210   8.136  0.1044 -0.0433 -0.0233
 6670SOL    HW122004   4.906   6.210   8.217 -1.1985  2.3365 -0.7529
 6670SOL    HW222005   5.047   6.227   8.166 -0.1076 -0.6540  1.0168
 6671SOL     OW22006   8.430   5.166   5.743  0.3658  0.0397 -0.3707
 6671SOL    HW122007   8.379   5.207   5.674  0.9197  2.0275  0.3407
 6671SOL    HW222008   8.495   5.113   5.696 -1.0893 -0.9991 -1.2888
 6672SOL     OW22009   1.504   5.678   7.144  0.3461  0.7521  0.6845
 6672SOL    HW122010   1.534   5.740   7.211  1.0520 -0.1698  1.2557
 6672SOL    HW222011   1.571   5.609   7.144 -1.3635 -1.0205  1.4614
 6673SOL     OW22012   8.603   4.950   8.654 -0.1324  0.3862 -0.0758
 6673SOL    HW122013   8.688   4.911   8.633  0.0595  0.5540  0.3628
 6673SOL    HW222014   8.579   4.910   8.738 -1.0559 -0.5645 -0.7798
 6674SOL     OW22015   8.893   7.147   3.490 -0.7005  0.0033 -0.1821
 6674SOL    HW122016   8.863   7.203   3.561 -0.4207  0.7582 -0.6532
 6674SOL    HW222017   8.989   7.145   3.499 -0.6090  0.6675 -0.9498
 6675SOL     OW22018   4.569   7.727   8.494 -0.1636 -0.4210  0.5799
 6675SOL    HW122019   4.530   7.771   8.419  1.7241 -0.4734 -0.4888
 6675SOL    HW222020   4.498   7.721   8.558 -2.1258 -1.2077 -1.5183
 6676SOL     OW22021   5.843   0.179   0.477 -0.0543  0.1066 -0.8820
 6676SOL    HW122022   5.796   0.234   0.539  1.6092  0.1787  0.3917
 6676SOL    HW222023   5.811   0.206   0.391 -1.0651  1.3174 -0.1483
 6677SOL     OW22024   0.749   3.697   5.919 -0.0730  0.3411 -0.4643
 6677SOL    HW122025   0.805   3.619   5.917  1.2151  1.2538 -1.4860
 6677SOL    HW222026   0.781   3.752   5.848 -0.6654  2.0004  0.4835
 6678SOL     OW22027   7.134   7.991   6.144  0.5107 -0.4262  0.0573
 6678SOL    HW122028   7.176   8.019   6.062 -0.4563 -0.9097 -0.6315
 6678SOL    HW222029   7.041   8.011   6.131  0.6065  1.6602  1.9748
 6679SOL     OW22030   7.136   7.846   2.399  0.2452  0.1951 -0.2855
 6679SOL    HW122031   7.150   7.920   2.459  0.6253  0.3731 -0.5902
 6679SOL    HW222032   7.181   7.773   2.442 -0.3345  0.0721  0.1353
 6680SOL     OW22033   6.388   6.107   5.939  0.2364 -0.1462  0.1070
 6680SOL    HW122034   6.380   6.071   5.851  0.7162 -0.5836  0.2357
 6680SOL    HW222035   6.478   6.138   5.944  0.5638 -1.1505  0.8174
 6681SOL     OW22036   4.655   4.687   4.573 -0.2328  0.1824  0.5316
 6681SOL    HW122037   4.607   4.645   4.501 -0.0279 -0.5144  0.7974
 6681SOL    HW222038   4.669   4.776   4.542 -3.4530  1.0811  1.2409
 6682SOL     OW22039   4.031   8.211   7.701  0.0966 -0.5555  0.0138
 6682SOL    HW122040   4.093   8.220   7.629  0.4940 -1.3705  0.2400
 6682SOL    HW222041   4.065   8.138   7.753 -1.2929 -1.3119 -0.1028
 6683SOL     OW22042   7.643   1.940   2.370 -0.1525  0.0440 -0.1968
 6683SOL    HW122043   7.685   2.020   2.404 -3.2740  1.4389  0.7940
 6683SOL    HW222044   7.614   1.964   2.282  0.3397 -0.5852 -0.5325
 6684SOL     OW22045   6.539   6.190   8.397 -0.3019  0.4640  0.5585
 6684SOL    HW122046   6.600   6.119   8.419 -0.1543  0.6006  0.5993
 6684SOL    HW222047   6.596   6.265   8.380 -0.4662  0.6195  0.6940
 6685SOL     OW22048   2.989   4.935   1.010 -0.1908 -0.1161  0.2591
 6685SOL    HW122049   3.043   4.860   0.986 -1.4414 -1.3014  0.9449
 6685SOL    HW222050   2.984   4.988   0.931  2.1077  0.1592  0.2413
 6686SOL     OW22051   0.462   8.413   2.845  0.2625  0.5178 -0.1834
 6686SOL    HW122052   0.498   8.486   2.795 -2.2912  2.4988  0.6558
 6686SOL    HW222053   0.387   8.384   2.793 -1.9247  2.0621  1.9216
 6687SOL     OW22054   1.879   0.508   0.911  0.6240  0.4472  0.3327
 6687SOL    HW122055   1.904   0.523   1.002  2.2508  2.0459 -0.3227
 6687SOL    HW222056   1.914   0.421   0.891 -2.2623 -1.2822  1.9721
 6688SOL     OW22057   3.146   2.773   8.669  0.0344 -0.1307 -0.0963
 6688SOL    HW122058   3.155   2.682   8.640 -0.6110 -0.2179 -0.0534
 6688SOL    HW222059   3.210   2.822   8.618 -0.2511 -0.4693 -0.7968
 6689SOL     OW22060   5.674   0.128   4.654 -0.0434  0.1596 -0.3061
 6689SOL    HW122061   5.595   0.116   4.601  0.3798 -0.5942 -0.7789
 6689SOL    HW222062   5.682   0.047   4.704  1.2381 -0.4052 -1.3644
 6690SOL     OW22063   2.269   7.564   7.941 -0.1751 -0.5270 -0.3764
 6690SOL    HW122064   2.195   7.519   7.982 -2.3318  3.1009  0.2362
 6690SOL    HW222065   2.315   7.606   8.014  1.4782 -1.3194 -0.9325
 6691SOL     OW22066   1.188   2.413   1.568  0.4160 -0.1611  0.7349
 6691SOL    HW122067   1.251   2.349   1.603  0.7336 -0.0688  0.3414
 6691SOL    HW222068   1.231   2.498   1.580  0.5491 -0.1343  0.0780
 6692SOL     OW22069   3.884   4.515   6.978  0.1620 -0.1802 -0.1294
 6692SOL    HW122070   3.960   4.566   7.008  0.3999 -0.3947 -0.3682
 6692SOL    HW222071   3.849   4.565   6.905 -0.2692  0.2139  0.3405
 6693SOL     OW22072   3.985   7.838   8.850 -0.2393  0.1335  0.0274
 6693SOL    HW122073   3.970   7.925   8.887  2.1137  0.6174  0.0150
 6693SOL    HW222074   4.047   7.852   8.779 -1.6965 -1.2905 -1.6003
 6694SOL     OW22075   1.442   2.222   2.895 -0.1533 -0.2187 -0.1082
 6694SOL    HW122076   1.470   2.145   2.946  0.4496  0.7948  1.1475
 6694SOL    HW222077   1.346   2.215   2.892 -0.2869  0.1210  1.9332
 6695SOL     OW22078   7.160   8.356   6.380 -0.0779 -0.4546 -0.2397
 6695SOL    HW122079   7.218   8.414   6.429 -0.5043  0.1028 -0.3900
 6695SOL    HW222080   7.210   8.275   6.370  0.0800 -0.5226  0.9647
 6696SOL     OW22081   2.108   8.423   6.369 -0.0713 -0.3697 -0.0843
 6696SOL    HW122082   2.139   8.501   6.416  2.1180 -1.7704  0.9322
 6696SOL    HW222083   2.184   8.365   6.366 -1.4557 -2.2126 -1.4071
 6697SOL     OW22084   4.074   3.858   6.405  0.0144  0.0591 -0.0673
 6697SOL    HW122085   4.060   3.882   6.313 -1.2073 -0.0761  0.0701
 6697SOL    HW222086   4.053   3.937   6.454  2.2648  0.6693  0.0491
 6698SOL     OW22087   4.151   8.508   5.423 -0.0128  0.0706  0.0749
 6698SOL    HW122088   4.087   8.527   5.492 -1.9112  0.0567 -1.5922
 6698SOL    HW222089   4.170   8.415   5.433 -0.4565  0.0161  0.4418
 6699SOL     OW22090   6.369   6.191   8.150  0.4961 -0.1617  0.1033
 6699SOL    HW122091   6.336   6.280   8.136  1.4978  0.2673  0.4110
 6699SOL    HW222092   6.354   6.175   8.243 -1.3464 -1.0292 -0.2919
 6700SOL     OW22093   6.602   1.232   3.301 -0.0328 -0.0768 -0.7078
 6700SOL    HW122094   6.647   1.288   3.238  3.6518 -0.7000  1.0533
 6700SOL    HW222095   6.631   1.264   3.386 -0.7680 -2.3247  0.4612
 6701SOL     OW22096   5.324   7.565   6.584  0.2509 -0.1652  0.4408
 6701SOL    HW122097   5.324   7.567   6.680 -2.9830  2.6684  0.5816
 6701SOL    HW222098   5.347   7.654   6.559  0.9982 -0.8551 -1.4680
 6702SOL     OW22099   0.292   1.731   3.160 -0.9273  0.0823 -0.2456
 6702SOL    HW122100   0.322   1.666   3.223 -0.1555 -0.1055 -0.7969
 6702SOL    HW222101   0.220   1.689   3.114  0.2645 -0.8137 -1.3494
 6703SOL     OW22102   7.494   2.381   7.069 -0.4100  0.7786  0.3285
 6703SOL    HW122103   7.510   2.390   7.163 -1.8959  3.3555  0.4425
 6703SOL    HW222104   7.581   2.375   7.030  0.3562  2.3855  1.6740
 6704SOL     OW22105   1.935   7.034   7.577 -0.5259  0.4014  0.1424
 6704SOL    HW122106   1.897   7.121   7.580  1.3510  1.2330  1.6507
 6704SOL    HW222107   2.027   7.046   7.600  0.7197 -1.5266 -3.0122
 6705SOL     OW22108   7.016   5.758   1.845  0.2409 -0.3861 -0.2652
 6705SOL    HW122109   6.943   5.820   1.841 -0.1524 -0.8776 -0.9388
 6705SOL    HW222110   7.093   5.809   1.820  0.1294  0.1351  0.4359
 6706SOL     OW22111   7.550   5.033   8.057  0.0852 -0.4524  0.7739
 6706SOL    HW122112   7.632   5.076   8.081  1.2075 -2.0878  0.1054
 6706SOL    HW222113   7.573   4.981   7.979 -1.3024 -1.8073  1.2280
 6707SOL     OW22114   3.655   7.813   6.524  0.2816  0.0269 -0.1227
 6707SOL    HW122115   3.607   7.782   6.448 -0.2781 -1.0589  0.6349
 6707SOL    HW222116   3.701   7.892   6.494  0.0699 -0.3695 -1.5561
 6708SOL     OW22117   5.639   8.191   5.579 -0.0323 -0.0101 -0.5615
 6708SOL    HW122118   5.566   8.185   5.639 -1.1707  1.0551 -1.7752
 6708SOL    HW222119   5.715   8.211   5.634 -0.8134 -0.1894  0.6038
 6709SOL     OW22120   1.714   3.162   3.771  0.4637  0.0888 -0.2950
 6709SOL    HW122121   1.705   3.070   3.745  1.0572  0.1487 -0.7411
 6709SOL    HW222122   1.700   3.211   3.690  0.4219  0.3765 -0.1131
 6710SOL     OW22123   4.823   4.910   4.058  0.2096  1.0771  0.0775
 6710SOL    HW122124   4.903   4.936   4.103  1.6865 -1.3558 -0.9449
 6710SOL    HW222125   4.777   4.856   4.122  0.1464  1.1782  0.1188
 6711SOL     OW22126   6.452   2.872   0.891 -0.0574 -0.9876  0.2566
 6711SOL    HW122127   6.460   2.962   0.923  0.5761 -0.4082 -1.4796
 6711SOL    HW222128   6.530   2.858   0.838 -0.4515 -2.3592  0.0204
 6712SOL     OW22129   6.764   6.432   4.883  0.1008  0.3757 -0.1104
 6712SOL    HW122130   6.727   6.356   4.927  1.1709 -0.1801 -0.1240
 6712SOL    HW222131   6.844   6.399   4.842  0.2119  1.3537 -0.7079
 6713SOL     OW22132   3.757   4.540   2.852 -0.4651 -0.0474 -0.0599
 6713SOL    HW122133   3.683   4.494   2.893  0.9216 -2.5678 -0.2156
 6713SOL    HW222134   3.816   4.470   2.823  1.2406  1.8334 -1.3917
 6714SOL     OW22135   0.552   4.558   2.021  0.3237 -0.1763 -0.6655
 6714SOL    HW122136   0.582   4.639   2.063 -3.7527  1.4594 -0.4655
 6714SOL    HW222137   0.593   4.559   1.935  1.1930  1.5487 -0.2844
 6715SOL     OW22138   5.446   4.498   4.251  0.2413  0.1887 -0.1219
 6715SOL    HW122139   5.367   4.504   4.305  0.6812  1.0450  0.4419
 6715SOL    HW222140   5.514   4.465   4.310  0.5686  0.5041 -0.3208
 6716SOL     OW22141   3.852   1.976   5.407 -0.2543 -0.2305  0.1433
 6716SOL    HW122142   3.908   1.905   5.438 -1.2737 -0.8973  0.5341
 6716SOL    HW222143   3.901   2.056   5.427 -0.3510 -0.6778  2.4817
 6717SOL     OW22144   5.958   0.516   4.428  0.3585 -0.5083 -0.3790
 6717SOL    HW122145   6.025   0.580   4.453  0.3471 -0.5479 -0.2489
 6717SOL    HW222146   5.974   0.441   4.485  1.8619 -1.5700 -2.1009
 6718SOL     OW22147   7.849   0.859   6.413  0.2538 -0.4373 -0.0834
 6718SOL    HW122148   7.760   0.825   6.413 -0.6348  1.7674 -0.3092
 6718SOL    HW222149   7.875   0.857   6.506  0.7898 -2.9361 -0.2102
 6719SOL     OW22150   1.939   8.753   0.514 -0.3292 -0.3613 -0.1307
 6719SOL    HW122151   1.917   8.805   0.437 -0.5810 -0.8707 -0.4072
 6719SOL    HW222152   1.914   8.809   0.588 -2.8733 -0.9801 -0.4251
 6720SOL     OW22153   4.680   7.146   5.563 -0.1919  0.2296 -0.0075
 6720SOL    HW122154   4.623   7.116   5.492 -0.5777  0.4044  0.2217
 6720SOL    HW222155   4.741   7.206   5.521  0.3788 -0.6183 -0.4097
 6721SOL     OW22156   0.067   6.286   4.203  0.5069 -0.2438 -0.1737
 6721SOL    HW122157   0.151   6.329   4.186  1.4713 -1.0370  2.1484
 6721SOL    HW222158   0.014   6.353   4.245 -0.2880  0.4126 -2.0975
 6722SOL     OW22159   3.484   0.560   8.736  0.2277  0.1693  0.4906
 6722SOL    HW122160   3.505   0.482   8.788 -0.7835 -0.1431  0.4595
 6722SOL    HW222161   3.388   0.564   8.737  0.1013 -0.3766 -2.0505
 6723SOL     OW22162   6.470   1.619   2.474  0.6166 -0.2419  0.7223
 6723SOL    HW122163   6.458   1.689   2.538  0.3729 -0.3730  0.8165
 6723SOL    HW222164   6.432   1.542   2.514  2.0597 -0.7459  1.1787
 6724SOL     OW22165   5.510   8.777   7.546 -0.2058  0.7786 -0.4505
 6724SOL    HW122166   5.428   8.811   7.581 -1.6870 -1.9995 -1.0062
 6724SOL    HW222167   5.493   8.765   7.452 -0.3541 -2.7231 -0.0944
 6725SOL     OW22168   0.987   7.503   7.938 -0.1632 -0.3261  0.1544
 6725SOL    HW122169   1.020   7.421   7.974  1.7405  0.9444  1.5224
 6725SOL    HW222170   0.983   7.489   7.844 -0.9126 -2.2968  0.4370
 6726SOL     OW22171   4.900   2.913   2.254 -0.1979 -0.0093 -0.2932
 6726SOL    HW122172   4.907   3.008   2.245  2.0356 -0.2593 -2.1880
 6726SOL    HW222173   4.938   2.894   2.340 -2.7097  0.8961  1.1269
 6727SOL     OW22174   2.703   1.093   5.278  0.1664  0.0971  0.3679
 6727SOL    HW122175   2.736   1.086   5.367 -0.6177  1.1557  0.7600
 6727SOL    HW222176   2.654   1.011   5.264  1.7088 -0.8418  0.2714
 6728SOL     OW22177   6.819   6.474   8.685 -0.3344  0.4549 -0.0268
 6728SOL    HW122178   6.835   6.528   8.762  1.0843 -0.4788  0.3707
 6728SOL    HW222179   6.728   6.446   8.695 -0.2776  0.6089  1.1595
 6729SOL     OW22180   0.070   5.128   7.996 -0.2288  0.0782  0.8446
 6729SOL    HW122181   0.066   5.206   8.051 -0.5783 -0.4907  1.6339
 6729SOL    HW222182   0.058   5.055   8.056  1.0417 -0.6430  0.2435
 6730SOL     OW22183   0.414   6.043   5.974 -0.0922  0.0967 -0.2708
 6730SOL    HW122184   0.496   6.041   5.924  0.6803  1.8479  0.8560
 6730SOL    HW222185   0.346   6.056   5.908 -0.0825 -5.0612 -1.7730
 6731SOL     OW22186   7.326   4.010   0.998 -0.2256 -0.3947 -0.7721
 6731SOL    HW122187   7.245   4.054   0.972 -0.3618 -0.6820 -0.8414
 6731SOL    HW222188   7.379   4.079   1.039  0.2217  0.1917 -2.2618
 6732SOL     OW22189   0.837   4.961   4.307 -0.1028  0.2449  0.1208
 6732SOL    HW122190   0.874   5.024   4.369  0.8888  0.5113 -0.7226
 6732SOL    HW222191   0.910   4.905   4.282 -0.8754 -0.9646  0.5024
 6733SOL     OW22192   4.645   0.780   3.275  0.3033  0.4927  0.0445
 6733SOL    HW122193   4.552   0.763   3.292  0.2165  0.3730 -0.5500
 6733SOL    HW222194   4.687   0.763   3.360 -0.0845 -0.4609  0.0680
 6734SOL     OW22195   7.765   4.242   6.680  0.4449  0.6083  0.5107
 6734SOL    HW122196   7.728   4.159   6.711  0.0604  0.4791 -0.2693
 6734SOL    HW222197   7.697   4.307   6.701  0.2368  0.5394  0.0629
 6735SOL     OW22198   0.394   5.748   4.366  0.1233 -0.4007 -0.3802
 6735SOL    HW122199   0.476   5.757   4.318 -0.5449  0.3422 -1.4138
 6735SOL    HW222200   0.364   5.838   4.378 -1.3292 -0.7378 -1.3964
 6736SOL     OW22201   0.860   1.187   1.041 -0.4307 -0.2260 -0.4370
 6736SOL    HW122202   0.805   1.206   0.964 -2.2396  0.7913  1.0277
 6736SOL    HW222203   0.806   1.213   1.115  1.6966 -0.1787  1.1548
 6737SOL     OW22204   2.228   3.486   2.908  0.0595  0.1381 -0.3148
 6737SOL    HW122205   2.141   3.521   2.891  0.3348  0.6224 -0.7461
 6737SOL    HW222206   2.264   3.543   2.976  0.4760  0.6642 -0.9598
 6738SOL     OW22207   4.552   1.283   7.458 -0.4725  0.5611  0.1016
 6738SOL    HW122208   4.635   1.306   7.415 -0.5747 -0.4864 -0.6902
 6738SOL    HW222209   4.488   1.286   7.387 -0.4954 -2.0962 -0.0605
 6739SOL     OW22210   8.072   7.611   7.475 -0.6178  0.1227 -0.1674
 6739SOL    HW122211   7.983   7.636   7.449  0.2236  3.0637 -0.5430
 6739SOL    HW222212   8.085   7.652   7.560  0.5972  0.2713 -0.4139
 6740SOL     OW22213   4.290   2.779   2.238  0.0852  0.2696 -0.0349
 6740SOL    HW122214   4.204   2.740   2.252 -0.0067  1.1640  2.4661
 6740SOL    HW222215   4.347   2.706   2.215 -1.2843 -0.3426 -1.6674
 6741SOL     OW22216   8.591   3.481   1.156 -0.0269 -0.1698 -0.0583
 6741SOL    HW122217   8.681   3.508   1.139 -0.2070  0.0315 -0.7261
 6741SOL    HW222218   8.598   3.390   1.185  0.3771 -0.1977 -0.2462
 6742SOL     OW22219   1.569   0.572   1.048 -0.2472  0.3264 -0.7845
 6742SOL    HW122220   1.643   0.632   1.037  1.2426 -1.1556  0.7017
 6742SOL    HW222221   1.518   0.583   0.967  0.6477  2.6167 -1.1239
 6743SOL     OW22222   0.571   4.783   5.365  0.3802  0.3239 -0.0775
 6743SOL    HW122223   0.649   4.727   5.371  0.9093  1.0734  0.0914
 6743SOL    HW222224   0.566   4.809   5.273  0.3327  0.2871 -0.0855
 6744SOL     OW22225   7.461   3.950   6.069  0.0353  0.4836 -0.0227
 6744SOL    HW122226   7.535   4.011   6.072 -0.4844  1.1376 -0.3646
 6744SOL    HW222227   7.447   3.925   6.161 -0.3141  1.5630  0.2230
 6745SOL     OW22228   7.201   8.757   1.659  0.0559 -0.0420 -0.1616
 6745SOL    HW122229   7.141   8.726   1.591  0.7078  1.1207 -1.2980
 6745SOL    HW222230   7.144   8.804   1.721 -0.3886 -0.1258 -0.5000
 6746SOL     OW22231   2.808   4.285   7.163 -0.2677  0.4675  0.0579
 6746SOL    HW122232   2.855   4.201   7.162 -0.2541  0.4679 -1.5603
 6746SOL    HW222233   2.877   4.351   7.168 -0.2769  0.4070  1.3002
 6747SOL     OW22234   5.596   0.674   3.514 -0.1598 -0.1645 -0.1130
 6747SOL    HW122235   5.604   0.746   3.452  2.0094 -0.0415  0.2179
 6747SOL    HW222236   5.624   0.597   3.465  0.2330 -0.2923  0.2947
 6748SOL     OW22237   3.912   6.987   1.411  0.3181  0.4225 -0.3373
 6748SOL    HW122238   3.988   7.043   1.394  0.2616  0.2075 -1.3292
 6748SOL    HW222239   3.840   7.029   1.364  0.0362  0.0960 -0.2017
 6749SOL     OW22240   0.432   2.031   8.293 -0.5664 -0.1960  0.0931
 6749SOL    HW122241   0.503   2.008   8.354  1.4301  0.4450 -1.8435
 6749SOL    HW222242   0.390   1.948   8.272 -0.1083 -0.6621  0.9527
 6750SOL     OW22243   1.593   8.789   1.684  0.4172 -0.4572 -0.4657
 6750SOL    HW122244   1.642   8.724   1.633  0.8237  0.0890 -0.7836
 6750SOL    HW222245   1.569   8.743   1.764  1.2228 -0.8274 -0.4231
 6751SOL     OW22246   3.903   1.798   6.496 -0.6093  0.3661 -0.7020
 6751SOL    HW122247   3.946   1.871   6.542 -1.7611  1.2213 -0.9475
 6751SOL    HW222248   3.950   1.720   6.526 -1.0070  0.9402  1.5409
 6752SOL     OW22249   7.062   3.258   5.384  0.2088 -0.5894  0.9595
 6752SOL    HW122250   6.976   3.279   5.348  0.1615 -1.6950  0.3788
 6752SOL    HW222251   7.092   3.339   5.424 -0.1929  0.4169 -0.6684
 6753SOL     OW22252   4.803   5.593   8.336  0.3749 -0.0462  0.1514
 6753SOL    HW122253   4.785   5.557   8.422  0.1376  0.0717  0.1523
 6753SOL    HW222254   4.880   5.649   8.349 -0.1624  0.6364  0.4668
 6754SOL     OW22255   5.547   5.658   1.877  1.0746 -0.1222 -0.2484
 6754SOL    HW122256   5.615   5.724   1.866  1.3491 -0.2465  0.5994
 6754SOL    HW222257   5.498   5.659   1.795  1.9786  0.0999 -0.8000
 6755SOL     OW22258   2.457   4.325   3.253 -0.0025 -0.4905 -0.0493
 6755SOL    HW122259   2.519   4.352   3.185  1.2729  0.8783  1.5520
 6755SOL    HW222260   2.393   4.271   3.207  1.9776 -1.4103 -1.9260
 6756SOL     OW22261   0.121   6.469   6.148 -0.2372 -0.0303 -0.3772
 6756SOL    HW122262   0.189   6.430   6.092 -1.0798  0.8263 -2.1049
 6756SOL    HW222263   0.121   6.416   6.227  1.6251 -0.7847 -0.8284
 6757SOL     OW22264   8.461   2.692   7.976  0.0804  0.3521 -0.6145
 6757SOL    HW122265   8.535   2.724   7.923  0.2068  0.7065 -0.2293
 6757SOL    HW222266   8.489   2.606   8.006  1.7430  1.7112  2.1647
 6758SOL     OW22267   0.541   0.898   2.457 -0.1481 -0.3655  0.6369
 6758SOL    HW122268   0.589   0.836   2.402  1.4184  1.0094  0.3528
 6758SOL    HW222269   0.581   0.888   2.543  0.8034  0.8654  0.3737
 6759SOL     OW22270   2.493   1.179   5.505  0.2952 -0.0274 -0.3332
 6759SOL    HW122271   2.415   1.172   5.450  0.8053  1.3281 -1.2901
 6759SOL    HW222272   2.513   1.272   5.507  1.3901 -0.2503  0.6349
 6760SOL     OW22273   0.415   5.776   7.910 -0.7243 -0.1142  0.0325
 6760SOL    HW122274   0.482   5.797   7.845 -0.3703 -1.6277 -0.1504
 6760SOL    HW222275   0.368   5.858   7.924 -2.0465 -0.0678 -3.5597
 6761SOL     OW22276   0.062   8.429   3.184  0.2459  0.7764 -0.3890
 6761SOL    HW122277   0.073   8.473   3.269  2.8862  0.0526 -0.2794
 6761SOL    HW222278   0.044   8.500   3.123  1.8064  1.7568  0.2270
 6762SOL     OW22279   7.402   6.644   2.785 -0.2956 -0.1787  0.5749
 6762SOL    HW122280   7.449   6.726   2.803 -2.4332  1.1527  0.4001
 6762SOL    HW222281   7.351   6.628   2.863 -0.5677 -0.8785  0.2560
 6763SOL     OW22282   6.936   5.184   5.792  0.1108 -0.1174  0.3275
 6763SOL    HW122283   6.886   5.265   5.777  0.7932  0.2783  0.1184
 6763SOL    HW222284   6.973   5.194   5.880  0.4519 -0.0531  0.1810
 6764SOL     OW22285   8.499   3.505   4.270 -0.2419 -0.0251  0.4371
 6764SOL    HW122286   8.579   3.504   4.217 -0.5321  0.7115 -0.0296
 6764SOL    HW222287   8.486   3.413   4.295 -0.1534 -0.4193 -0.8708
 6765SOL     OW22288   0.477   6.260   5.494 -0.1056  0.3833 -0.5835
 6765SOL    HW122289   0.447   6.267   5.584  0.7635 -0.4129 -0.2116
 6765SOL    HW222290   0.398   6.238   5.444 -0.3024 -0.9570  0.2568
 6766SOL     OW22291   8.287   4.923   1.525  0.1209  0.2843 -0.1535
 6766SOL    HW122292   8.221   4.854   1.527 -0.3690  0.7515 -0.0086
 6766SOL    HW222293   8.252   4.989   1.465 -0.7163  1.6611  1.7412
 6767SOL     OW22294   5.017   5.655   4.026 -0.2351 -0.7710 -0.4934
 6767SOL    HW122295   5.042   5.717   4.094 -1.4476  0.0575 -0.7773
 6767SOL    HW222296   5.090   5.657   3.964  0.4866 -0.8953  0.3336
 6768SOL     OW22297   4.718   8.386   1.799 -0.1113 -0.5872 -0.2419
 6768SOL    HW122298   4.732   8.473   1.837  0.2158 -0.6499 -0.2116
 6768SOL    HW222299   4.651   8.346   1.853 -1.3851  0.2203 -1.1787
 6769SOL     OW22300   5.356   1.632   1.978  0.2122 -0.4022  0.2396
 6769SOL    HW122301   5.339   1.721   2.007  0.8004 -0.4407  0.7435
 6769SOL    HW222302   5.272   1.600   1.945  0.2054  0.6384 -0.7786
 6770SOL     OW22303   3.529   5.393   0.677 -0.1529 -0.4014  0.0578
 6770SOL    HW122304   3.500   5.438   0.757 -1.3329 -1.2796  0.1454
 6770SOL    HW222305   3.516   5.458   0.607  0.4570  0.2113  0.4950
 6771SOL     OW22306   0.486   1.481   2.276 -0.3163  0.4689  0.1134
 6771SOL    HW122307   0.414   1.485   2.340  0.1613 -0.4130  0.7268
 6771SOL    HW222308   0.564   1.462   2.329  0.4745  1.9267 -0.4819
 6772SOL     OW22309   1.892   1.169   1.335 -0.0100 -0.3019 -0.3693
 6772SOL    HW122310   1.981   1.154   1.369  0.7409  2.1864 -1.0282
 6772SOL    HW222311   1.840   1.188   1.413  0.3848 -0.3599 -0.0867
 6773SOL     OW22312   8.479   7.193   7.958 -0.1807 -1.2018  0.4183
 6773SOL    HW122313   8.479   7.113   7.905 -1.1264 -0.2353 -1.1035
 6773SOL    HW222314   8.451   7.262   7.898 -0.6473  0.0636  2.0251
 6774SOL     OW22315   6.205   6.478   5.882 -0.2107  0.9098 -0.0927
 6774SOL    HW122316   6.229   6.403   5.828  1.7701  1.4087  0.0227
 6774SOL    HW222317   6.193   6.443   5.970 -1.9860  0.3362 -0.5190
 6775SOL     OW22318   1.988   8.054   5.271  0.5867 -0.0149 -1.0480
 6775SOL    HW122319   1.947   8.056   5.184 -0.4749  0.7470 -0.5493
 6775SOL    HW222320   2.070   8.101   5.260 -0.3736  1.6981 -1.2525
 6776SOL     OW22321   8.365   7.396   1.114 -0.1924  0.6939 -0.4567
 6776SOL    HW122322   8.419   7.468   1.083  0.0792  0.6454 -0.1031
 6776SOL    HW222323   8.276   7.430   1.113 -0.1532  0.7931 -0.9868
 6777SOL     OW22324   6.144   1.595   1.451 -0.9714  0.2521 -0.6208
 6777SOL    HW122325   6.181   1.682   1.467 -1.7059  0.6138 -0.8168
 6777SOL    HW222326   6.063   1.595   1.501 -1.8333  0.3218 -1.9622
 6778SOL     OW22327   7.315   7.816   1.747  0.0539  0.2059  0.0332
 6778SOL    HW122328   7.361   7.833   1.829 -0.5998  1.9680  0.0759
 6778SOL    HW222329   7.232   7.863   1.756  0.0917  0.6687 -1.7439
 6779SOL     OW22330   2.690   3.033   1.072  0.0614 -0.1717  0.5951
 6779SOL    HW122331   2.682   3.112   1.125 -1.9446 -0.7721  1.2885
 6779SOL    HW222332   2.643   3.052   0.991 -0.4381 -0.6324  0.7677
 6780SOL     OW22333   2.421   0.985   0.497  0.1249  0.8944  0.3093
 6780SOL    HW122334   2.334   0.948   0.510 -0.3842  1.6707 -0.7624
 6780SOL    HW222335   2.466   0.923   0.440  0.6487 -0.0045  1.6365
 6781SOL     OW22336   3.837   5.390   2.124  0.0244 -0.1904  0.0362
 6781SOL    HW122337   3.808   5.337   2.198 -0.9237 -3.0526 -2.1974
 6781SOL    HW222338   3.782   5.468   2.127 -1.8783 -1.4849  0.8500
 6782SOL     OW22339   1.223   5.508   5.235  0.4510  0.5043  0.2826
 6782SOL    HW122340   1.223   5.602   5.221 -0.3271  0.8837  2.5271
 6782SOL    HW222341   1.313   5.487   5.262  0.6801  0.5428 -0.4242
 6783SOL     OW22342   2.962   0.029   2.240  0.1161 -0.0969 -0.3711
 6783SOL    HW122343   2.921   0.108   2.276 -0.0724 -0.9950  1.4910
 6783SOL    HW222344   2.916   0.013   2.158  0.0893  1.6585 -0.7307
 6784SOL     OW22345   2.705   8.616   5.624 -0.2036  0.1544  0.7549
 6784SOL    HW122346   2.771   8.571   5.571 -1.0985 -1.3748  0.8799
 6784SOL    HW222347   2.629   8.558   5.622 -1.7483  2.1001  0.1905
 6785SOL     OW22348   3.677   0.602   6.436  0.0010  0.2221  0.1031
 6785SOL    HW122349   3.765   0.638   6.426  0.1564  0.1248  1.0333
 6785SOL    HW222350   3.672   0.531   6.372  1.5853 -1.5872  1.8540
 6786SOL     OW22351   1.858   0.067   0.354  0.0484 -0.4124 -0.0875
 6786SOL    HW122352   1.853   0.054   0.260  1.8436  0.2182 -0.3082
 6786SOL    HW222353   1.925   0.135   0.365  1.0604 -1.6407  1.7201
 6787SOL     OW22354   6.101   3.392   1.217 -0.9669 -0.1707 -0.3780
 6787SOL    HW122355   6.024   3.419   1.167 -1.8822  0.2630  1.2082
 6787SOL    HW222356   6.108   3.457   1.287  1.1129  0.0421 -0.7379
 6788SOL     OW22357   4.105   5.676   1.251 -0.5590  0.1878  0.1990
 6788SOL    HW122358   4.091   5.662   1.158  1.7406  1.8518 -0.4851
 6788SOL    HW222359   4.165   5.606   1.277  1.5940  1.6576 -0.4857
 6789SOL     OW22360   0.015   0.467   1.910  0.0982  0.1997  0.1581
 6789SOL    HW122361   0.084   0.436   1.968  0.0508  1.1449  0.7233
 6789SOL    HW222362  -0.032   0.533   1.960 -0.9932 -0.1577 -0.3523
 6790SOL     OW22363   6.356   6.260   0.251 -0.0292 -0.0109 -0.1671
 6790SOL    HW122364   6.286   6.325   0.260  1.7223  1.7821  1.5334
 6790SOL    HW222365   6.368   6.225   0.339  1.9329  0.5746 -0.1535
 6791SOL     OW22366   3.363   8.696   3.110 -0.2770 -0.3010  0.2332
 6791SOL    HW122367   3.381   8.667   3.021  0.8747  0.9031  0.0383
 6791SOL    HW222368   3.415   8.776   3.120 -1.3146  0.2403  1.5936
 6792SOL     OW22369   1.834   0.890   0.101  0.1700  0.2409 -0.3810
 6792SOL    HW122370   1.747   0.882   0.063  0.6004  1.0187 -1.5940
 6792SOL    HW222371   1.852   0.984   0.101  1.5965  0.0157 -1.5955
 6793SOL     OW22372   4.259   6.765   0.909 -0.2117 -0.1875  0.0021
 6793SOL    HW122373   4.206   6.779   0.988 -1.7007  1.3049 -1.1924
 6793SOL    HW222374   4.246   6.844   0.857 -0.3293 -1.6756 -2.3559
 6794SOL     OW22375   1.796   6.598   6.516 -0.7680  0.1281  0.3114
 6794SOL    HW122376   1.722   6.574   6.571 -0.1961 -2.3385  0.0885
 6794SOL    HW222377   1.765   6.673   6.464 -2.6707 -0.1096  1.0596
 6795SOL     OW22378   6.684   5.052   6.920  0.8201  0.4965  0.2973
 6795SOL    HW122379   6.755   5.063   6.984  0.7051  0.2797  0.4634
 6795SOL    HW222380   6.687   4.960   6.896  0.3183  0.3865  0.6353
 6796SOL     OW22381   8.373   8.507   5.443 -0.4464  0.1893 -0.0675
 6796SOL    HW122382   8.369   8.425   5.393  1.6132 -0.9716  1.5012
 6796SOL    HW222383   8.323   8.489   5.523  0.4585  0.2293  0.5266
 6797SOL     OW22384   7.850   7.295   4.169  0.0703 -0.1207  0.1270
 6797SOL    HW122385   7.870   7.388   4.154 -1.4611  0.0486 -1.1731
 6797SOL    HW222386   7.780   7.296   4.235  1.5953 -0.5026  1.8096
 6798SOL     OW22387   8.393   4.304   8.133  0.8048  0.1350 -1.0172
 6798SOL    HW122388   8.324   4.261   8.082 -0.8546 -1.8647  2.4898
 6798SOL    HW222389   8.471   4.249   8.119  0.3738 -0.3897 -1.3907
 6799SOL     OW22390   1.505   8.654   5.938  0.1016 -0.0691  0.3697
 6799SOL    HW122391   1.507   8.704   6.020  1.1426  1.9013 -0.7835
 6799SOL    HW222392   1.434   8.694   5.887  0.0200 -0.7140 -0.0386
 6800SOL     OW22393   3.286   1.531   5.663  0.5224  0.1507 -0.6690
 6800SOL    HW122394   3.281   1.437   5.647 -2.7007 -0.0621  0.8473
 6800SOL    HW222395   3.374   1.544   5.698  1.3197 -2.1305 -1.6265
 6801SOL     OW22396   8.203   4.189   4.792 -0.4089 -0.2829 -0.0489
 6801SOL    HW122397   8.266   4.143   4.736  0.3283 -1.2138  1.4783
 6801SOL    HW222398   8.162   4.120   4.845 -0.2213  0.6540  1.3904
 6802SOL     OW22399   4.995   8.741   1.773 -0.4681 -0.7297 -0.0147
 6802SOL    HW122400   5.045   8.716   1.695  1.0919  0.4415  0.5681
 6802SOL    HW222401   4.917   8.784   1.738  0.0958 -0.4378 -0.9509
 6803SOL     OW22402   2.207   0.005   0.443  0.3195  0.0699 -0.0622
 6803SOL    HW122403   2.202  -0.065   0.377 -0.4128  0.6170 -0.6001
 6803SOL    HW222404   2.300   0.017   0.458  0.5329  0.4471 -1.5568
 6804SOL     OW22405   4.923   3.887   6.580 -0.5225  0.5077 -0.3416
 6804SOL    HW122406   4.975   3.959   6.544  0.3580 -0.5643 -1.3114
 6804SOL    HW222407   4.984   3.840   6.637 -1.2536  0.8367  0.7393
 6805SOL     OW22408   5.489   5.347   1.834 -0.1181  0.0500 -0.6072
 6805SOL    HW122409   5.410   5.378   1.879  1.7551  1.7204  1.7655
 6805SOL    HW222410   5.528   5.427   1.798 -1.5235 -1.1669 -5.6283
 6806SOL     OW22411   7.372   8.057   4.793 -0.4387  0.0483  0.2678
 6806SOL    HW122412   7.453   8.010   4.773 -0.0489  1.5223 -1.9683
 6806SOL    HW222413   7.304   8.011   4.745 -0.2496  0.9915 -0.9597
 6807SOL     OW22414   7.657   7.458   3.957 -0.1557  0.5538  0.2420
 6807SOL    HW122415   7.685   7.494   3.873 -0.3928  1.4364  0.5355
 6807SOL    HW222416   7.715   7.499   4.022  2.6078 -2.8568  0.2595
 6808SOL     OW22417   7.690   3.479   0.814 -0.4073  0.0686  0.3361
 6808SOL    HW122418   7.647   3.501   0.732  0.4576 -1.3712 -0.5442
 6808SOL    HW222419   7.620   3.485   0.880 -1.4930 -0.2824 -0.7427
 6809SOL     OW22420   3.962   7.005   7.664 -0.0072  0.0732 -0.3094
 6809SOL    HW122421   3.961   7.047   7.750  2.1635 -1.8456  0.7941
 6809SOL    HW222422   3.932   6.916   7.681  0.6840 -0.4066 -1.4784
 6810SOL     OW22423   0.423   2.731   0.988  0.5652  0.2926 -0.0135
 6810SOL    HW122424   0.443   2.807   1.043  2.2891 -0.0026 -0.1615
 6810SOL    HW222425   0.359   2.681   1.038 -1.4266  2.3288 -0.3742
 6811SOL     OW22426   2.193   1.066   2.112 -0.1518 -0.0573  0.5166
 6811SOL    HW122427   2.136   1.009   2.165 -0.2358  1.3990  2.0447
 6811SOL    HW222428   2.280   1.055   2.149  0.0844 -0.2074 -0.0689
 6812SOL     OW22429   4.316   4.707   0.471  0.2344  0.6152 -0.6666
 6812SOL    HW122430   4.327   4.648   0.396 -0.1225  0.4320 -0.5741
 6812SOL    HW222431   4.354   4.790   0.441 -0.9945  0.8984 -1.4922
 6813SOL     OW22432   1.698   6.481   0.507  0.0044  0.2272 -0.3869
 6813SOL    HW122433   1.659   6.455   0.591 -0.8443  0.2555 -0.7633
 6813SOL    HW222434   1.624   6.511   0.454  0.8051  2.4565 -0.3412
 6814SOL     OW22435   7.278   3.800   4.028  0.2041  1.3945  0.4040
 6814SOL    HW122436   7.260   3.787   4.121  0.0385  1.2021  0.3456
 6814SOL    HW222437   7.359   3.752   4.012 -0.6230  0.0538  0.0986
 6815SOL     OW22438   8.626   1.744   3.139  0.0346 -0.3255 -0.2060
 6815SOL    HW122439   8.622   1.684   3.065  1.7413 -0.8934  0.1188
 6815SOL    HW222440   8.679   1.699   3.204 -1.6710  0.0280  1.5262
 6816SOL     OW22441   4.212   0.027   1.845 -0.0108 -0.5273  0.2642
 6816SOL    HW122442   4.306   0.044   1.838  0.3575 -1.8096  1.5773
 6816SOL    HW222443   4.186   0.073   1.925 -0.4525 -0.3770  0.0367
 6817SOL     OW22444   8.720   3.811   0.524 -0.2736  0.0418  0.3847
 6817SOL    HW122445   8.760   3.728   0.551  1.1319  0.7264  0.4728
 6817SOL    HW222446   8.708   3.802   0.430 -0.6380 -0.4651  0.4737
 6818SOL     OW22447   4.350   8.433   2.164  0.3371  0.2031  0.3845
 6818SOL    HW122448   4.390   8.362   2.113 -1.6578  0.6057 -1.8909
 6818SOL    HW222449   4.345   8.398   2.253  0.2433 -2.1707 -0.4859
 6819SOL     OW22450   4.310   2.321   0.769  0.2623  0.5683  0.1896
 6819SOL    HW122451   4.227   2.274   0.775 -0.3642  1.7250  1.0067
 6819SOL    HW222452   4.373   2.264   0.813 -0.5533  0.6522  1.5028
 6820SOL     OW22453   0.032   5.786   6.473  0.1183 -0.2380  0.3091
 6820SOL    HW122454   0.065   5.707   6.515 -1.9253 -1.6296 -0.5676
 6820SOL    HW222455  -0.025   5.826   6.538 -0.4933 -0.6328  0.0200
 6821SOL     OW22456   5.076   2.613   3.235  0.2197 -0.1359 -0.5390
 6821SOL    HW122457   5.109   2.701   3.215  0.6207 -0.0177  0.5792
 6821SOL    HW222458   5.007   2.628   3.299 -1.2214 -0.4849 -1.9420
 6822SOL     OW22459   5.979   7.788   3.561  0.1324 -0.3662  0.1801
 6822SOL    HW122460   6.027   7.772   3.642 -1.3005 -0.5197  1.0409
 6822SOL    HW222461   6.047   7.796   3.493  1.2759 -2.6748  0.9407
 6823SOL     OW22462   2.273   0.494   1.499  0.2356 -0.1234 -0.4574
 6823SOL    HW122463   2.195   0.438   1.505  0.1876 -0.4604 -3.0065
 6823SOL    HW222464   2.262   0.558   1.569 -1.9790 -0.5893 -0.2972
 6824SOL     OW22465   5.015   0.438   0.822  0.0656 -0.6247  0.1978
 6824SOL    HW122466   4.984   0.348   0.808  1.8417 -1.2746  0.2331
 6824SOL    HW222467   5.104   0.439   0.787 -0.1885  1.3636 -0.5485
 6825SOL     OW22468   0.442   3.091   3.152 -0.4153 -0.1397  0.2583
 6825SOL    HW122469   0.405   3.021   3.206 -0.0518 -0.0846  0.5902
 6825SOL    HW222470   0.494   3.143   3.214 -1.2589  0.8461  0.1583
 6826SOL     OW22471   4.755   6.628   3.771 -0.4029  0.5262 -0.0809
 6826SOL    HW122472   4.805   6.673   3.838  1.3575  1.4352 -1.8803
 6826SOL    HW222473   4.694   6.693   3.737 -0.0788  0.6114 -0.5153
 6827SOL     OW22474   5.949   7.897   7.589  0.8346 -0.5781  0.2406
 6827SOL    HW122475   6.033   7.943   7.595  0.1575  0.6608  0.5250
 6827SOL    HW222476   5.885   7.959   7.624 -0.6873 -0.2041 -2.8083
 6828SOL     OW22477   1.799   4.104   7.520  0.4818 -0.3299 -0.0620
 6828SOL    HW122478   1.882   4.061   7.501  1.0495 -0.0504  1.6785
 6828SOL    HW222479   1.824   4.188   7.559 -0.6282 -0.1993  0.4004
 6829SOL     OW22480   7.036   5.777   2.204 -0.1076  0.3533  0.0436
 6829SOL    HW122481   6.963   5.735   2.251  0.6223 -1.1936 -0.1256
 6829SOL    HW222482   6.994   5.844   2.150 -1.4853 -0.7537 -0.3411
 6830SOL     OW22483   6.377   4.224   4.442  0.2877 -0.0369 -0.2408
 6830SOL    HW122484   6.422   4.253   4.522  0.0067  1.7912 -0.6942
 6830SOL    HW222485   6.402   4.288   4.376 -0.6387 -0.6914 -1.2563
 6831SOL     OW22486   5.736   5.079   7.119 -0.8391  0.1913 -0.0310
 6831SOL    HW122487   5.738   5.037   7.033  1.0821  2.2740 -1.1079
 6831SOL    HW222488   5.723   5.007   7.180 -1.6429 -1.4395 -2.0009
 6832SOL     OW22489   0.305   8.278   7.605  0.5194 -0.1784 -0.4391
 6832SOL    HW122490   0.211   8.263   7.591  0.4802 -0.8372  0.4628
 6832SOL    HW222491   0.346   8.256   7.522  0.0401 -1.5382 -0.3420
 6833SOL     OW22492   8.340   6.315   3.246 -0.2116 -0.0053 -0.3482
 6833SOL    HW122493   8.427   6.339   3.212 -0.0497 -1.6505 -1.2015
 6833SOL    HW222494   8.285   6.307   3.168 -0.3105 -2.0299 -0.1333
 6834SOL     OW22495   5.103   0.379   2.753  0.2887 -0.3321  0.3327
 6834SOL    HW122496   5.128   0.331   2.832 -1.9175 -2.6740 -0.2420
 6834SOL    HW222497   5.020   0.421   2.776  0.9180  1.1161  0.0125
 6835SOL     OW22498   3.902   8.455   7.805 -0.2789 -0.0331  0.1654
 6835SOL    HW122499   3.900   8.466   7.900 -2.1784 -2.3514  0.4626
 6835SOL    HW222500   3.958   8.379   7.791 -0.7598 -0.2656 -0.5055
 6836SOL     OW22501   7.150   8.087   1.160  0.1956  0.0416  0.4549
 6836SOL    HW122502   7.100   8.166   1.180  1.2039  0.4612  1.4272
 6836SOL    HW222503   7.110   8.019   1.215  0.6675  0.3789  1.2408
 6837SOL     OW22504   0.639   6.390   7.997 -0.0849  0.0241  0.0505
 6837SOL    HW122505   0.552   6.350   8.000 -0.2383  0.1600 -1.8388
 6837SOL    HW222506   0.626   6.479   8.029 -0.6037 -0.0257 -0.0198
 6838SOL     OW22507   5.957   2.314   0.825  0.1432 -0.1015 -0.6450
 6838SOL    HW122508   5.914   2.285   0.745  0.4630  0.5472 -1.0598
 6838SOL    HW222509   5.972   2.407   0.812 -0.5937  0.2052  0.5394
 6839SOL     OW22510   8.366   6.350   1.229  0.6512 -0.0618  0.2356
 6839SOL    HW122511   8.366   6.440   1.196 -0.0563 -0.1209  0.0596
 6839SOL    HW222512   8.385   6.359   1.323  0.5731  0.2726  0.2206
 6840SOL     OW22513   3.217   5.115   6.046 -0.4270 -0.4678  0.2871
 6840SOL    HW122514   3.254   5.026   6.048  0.1528 -0.2220  1.3819
 6840SOL    HW222515   3.175   5.125   6.131  0.7649  0.8180  0.7616
 6841SOL     OW22516   8.018   7.178   4.002  0.1188 -0.0137 -0.1462
 6841SOL    HW122517   8.096   7.205   4.052 -0.1984 -0.4100  0.5800
 6841SOL    HW222518   7.945   7.215   4.051 -0.1811 -0.0546 -0.5599
 6842SOL     OW22519   0.406   2.790   5.948  0.1844  0.3548  0.2269
 6842SOL    HW122520   0.488   2.780   5.996 -0.2464 -0.1822  0.8608
 6842SOL    HW222521   0.418   2.736   5.869  0.4554  0.3071  0.2986
 6843SOL     OW22522   6.212   5.896   5.475 -0.3087 -0.1040  0.4403
 6843SOL    HW122523   6.198   5.811   5.517 -1.9416  1.3241  3.0625
 6843SOL    HW222524   6.124   5.922   5.445  0.3378  0.2662 -1.2355
 6844SOL     OW22525   5.115   3.441   4.622 -0.4663  0.1854 -0.8653
 6844SOL    HW122526   5.129   3.409   4.532  1.4536 -0.9676 -0.2133
 6844SOL    HW222527   5.196   3.486   4.644 -0.7534  0.1056  0.4410
 6845SOL     OW22528   1.233   2.743   4.036  0.4620  0.0515 -0.1105
 6845SOL    HW122529   1.246   2.819   3.979 -0.9536 -0.0721 -0.6601
 6845SOL    HW222530   1.221   2.779   4.123  2.6962  0.2453  0.1724
 6846SOL     OW22531   5.073   7.312   4.228  0.7542  0.2990  0.0871
 6846SOL    HW122532   5.092   7.244   4.163 -1.0405 -0.0468 -0.1319
 6846SOL    HW222533   5.031   7.264   4.300 -0.8075  1.1750 -0.1907
 6847SOL     OW22534   2.049   0.693   5.911 -0.1233  0.6001 -0.1015
 6847SOL    HW122535   2.044   0.672   6.004 -3.1356  2.8782  0.4320
 6847SOL    HW222536   2.021   0.613   5.866  1.4348 -0.5434  0.8806
 6848SOL     OW22537   1.017   8.586   4.841 -0.0760  0.5673  0.0897
 6848SOL    HW122538   1.064   8.643   4.781  0.4856 -0.6672 -0.6764
 6848SOL    HW222539   0.951   8.643   4.881 -0.0022  1.5795 -1.1548
 6849SOL     OW22540   7.475   8.700   4.698  0.0518 -0.1334 -0.3546
 6849SOL    HW122541   7.416   8.654   4.639 -0.6697 -0.9982  0.9916
 6849SOL    HW222542   7.535   8.632   4.729  1.2930  0.5805 -1.1075
 6850SOL     OW22543   2.747   5.614   4.654  0.2691  0.1739 -0.1654
 6850SOL    HW122544   2.658   5.581   4.641  0.4337 -0.5719  0.5631
 6850SOL    HW222545   2.760   5.611   4.749  0.8842  0.7820 -0.2263
 6851SOL     OW22546   6.288   2.251   6.233  0.5802 -0.2057 -0.0279
 6851SOL    HW122547   6.336   2.283   6.157 -0.3197 -0.2398 -0.6252
 6851SOL    HW222548   6.328   2.167   6.254  1.6043  0.3415  0.2770
 6852SOL     OW22549   4.043   2.657   5.044  0.4027  0.0948 -0.5385
 6852SOL    HW122550   4.082   2.583   4.997 -0.0048 -0.3619 -0.1652
 6852SOL    HW222551   4.052   2.731   4.984 -0.5083 -0.5797 -1.5357
 6853SOL     OW22552   6.305   2.876   5.140 -0.0777  0.0751  0.1896
 6853SOL    HW122553   6.262   2.840   5.217 -1.2914  0.4115 -0.3061
 6853SOL    HW222554   6.235   2.887   5.076  1.0352 -1.0574 -1.3049
 6854SOL     OW22555   7.355   2.316   0.895  0.6654 -0.0060  0.2132
 6854SOL    HW122556   7.442   2.351   0.917  0.8169  0.1843 -0.6467
 6854SOL    HW222557   7.294   2.379   0.933  0.9340  0.8376 -0.7008
 6855SOL     OW22558   2.816   3.719   4.370  0.1416  0.1105  0.1678
 6855SOL    HW122559   2.726   3.741   4.345 -0.6194 -0.8799  1.8953
 6855SOL    HW222560   2.822   3.624   4.356  2.3790  0.6258 -4.1526
 6856SOL     OW22561   6.456   1.707   3.322 -0.0206 -0.1992 -0.0670
 6856SOL    HW122562   6.405   1.786   3.303  2.1037  1.0933 -0.6599
 6856SOL    HW222563   6.407   1.636   3.279 -1.3127  0.9563 -0.5784
 6857SOL     OW22564   1.046   6.286   1.673 -0.2588  0.6423 -0.2992
 6857SOL    HW122565   1.073   6.302   1.764 -0.5753 -0.2794 -0.0344
 6857SOL    HW222566   1.001   6.366   1.647  0.2276  1.0887  0.2071
 6858SOL     OW22567   6.850   4.849   0.723  0.1276 -0.7505  0.3581
 6858SOL    HW122568   6.781   4.852   0.657  0.1659 -2.4456  0.1991
 6858SOL    HW222569   6.927   4.817   0.676  0.6625 -0.2121  0.8428
 6859SOL     OW22570   6.352   3.335   0.088  0.4522 -0.6006  0.0910
 6859SOL    HW122571   6.364   3.334  -0.007 -0.5876  0.3252 -0.0676
 6859SOL    HW222572   6.336   3.243   0.110  0.6695 -0.8222 -0.6368
 6860SOL     OW22573   8.025   7.300   4.461 -0.0180  0.0058 -0.1996
 6860SOL    HW122574   8.072   7.379   4.433 -1.8251  1.4436  0.6022
 6860SOL    HW222575   7.959   7.287   4.393 -0.0946 -0.4822 -0.0281
 6861SOL     OW22576   4.918   2.332   0.703 -0.2497 -0.2571  0.1259
 6861SOL    HW122577   4.982   2.267   0.675  0.0778  0.2299 -0.2750
 6861SOL    HW222578   4.887   2.372   0.622  3.7873  4.1818  0.3469
 6862SOL     OW22579   6.896   2.424   0.906  0.1183  0.1695  0.1141
 6862SOL    HW122580   6.813   2.445   0.949  0.6701 -0.6204  1.6121
 6862SOL    HW222581   6.889   2.467   0.820 -2.8290 -1.8698 -0.8198
 6863SOL     OW22582   3.351   0.004   4.564 -0.0890 -0.8022 -0.0551
 6863SOL    HW122583   3.424  -0.016   4.505  0.2979 -0.3673  0.2689
 6863SOL    HW222584   3.297   0.065   4.514 -0.8695 -2.0220 -0.7499
 6864SOL     OW22585   6.748   6.016   8.431  0.1874 -0.0020 -0.1450
 6864SOL    HW122586   6.810   6.055   8.492  0.2019  0.9767 -0.7658
 6864SOL    HW222587   6.798   6.002   8.351  0.6417 -2.8885  0.5347
 6865SOL     OW22588   7.211   7.427   1.746 -0.2618  0.4182 -0.4063
 6865SOL    HW122589   7.208   7.467   1.659  0.6396 -1.6289 -1.4560
 6865SOL    HW222590   7.207   7.333   1.729 -1.8288 -0.0076  1.8949
 6866SOL     OW22591   5.729   1.209   2.238 -0.0734  0.8128  0.4347
 6866SOL    HW122592   5.697   1.291   2.275 -1.7855  0.1073  0.6041
 6866SOL    HW222593   5.651   1.166   2.203  0.5793 -1.2282  1.2969
 6867SOL     OW22594   7.971   0.763   4.173  0.1509 -0.0783 -0.0988
 6867SOL    HW122595   7.928   0.787   4.255 -1.8712  0.9702 -1.3657
 6867SOL    HW222596   7.989   0.670   4.182  1.9445  0.3979  2.3030
 6868SOL     OW22597   1.509   0.409   0.595 -0.0934  0.7215 -0.0537
 6868SOL    HW122598   1.527   0.326   0.550 -0.6796  1.0707 -0.9663
 6868SOL    HW222599   1.582   0.465   0.572 -0.3105  0.8463 -0.4575
 6869SOL     OW22600   5.114   2.238   5.122 -0.3803 -0.3035 -0.2704
 6869SOL    HW122601   5.084   2.248   5.032  0.9911  1.3663 -0.6037
 6869SOL    HW222602   5.034   2.241   5.174 -1.3341 -2.6591 -1.4478
 6870SOL     OW22603   0.353   3.215   2.740  0.4987  0.0190 -0.2552
 6870SOL    HW122604   0.392   3.248   2.659 -1.6795 -0.0848 -1.4128
 6870SOL    HW222605   0.383   3.277   2.807  2.1011  0.2808 -1.1563
 6871SOL     OW22606   3.386   8.545   7.170  0.0255 -0.1466 -0.4143
 6871SOL    HW122607   3.408   8.532   7.262 -2.2549  0.1927  0.2531
 6871SOL    HW222608   3.381   8.457   7.133 -0.4843 -0.3751  0.1851
 6872SOL     OW22609   3.103   1.244   8.480 -0.5755  0.1301  0.3931
 6872SOL    HW122610   3.141   1.209   8.400 -1.6660 -2.0895  0.7750
 6872SOL    HW222611   3.055   1.322   8.451  0.2771  0.2274 -0.8431
 6873SOL     OW22612   0.244   2.565   7.336  0.2766  0.3189  0.5491
 6873SOL    HW122613   0.240   2.634   7.270  0.0806  0.0655  0.2972
 6873SOL    HW222614   0.335   2.567   7.367  0.2962  0.6239  0.4754
 6874SOL     OW22615   6.843   8.826   2.008  0.1691  0.2057  0.3327
 6874SOL    HW122616   6.859   8.921   2.007 -0.6006  0.3687  1.5140
 6874SOL    HW222617   6.859   8.801   2.099 -1.2294 -0.5039  0.4013
 6875SOL     OW22618   5.630   8.021   0.573 -0.1414 -0.4163 -0.3739
 6875SOL    HW122619   5.613   7.934   0.538 -1.2640 -1.3539  2.2439
 6875SOL    HW222620   5.712   8.011   0.623  0.9097  0.6348 -1.7925
 6876SOL     OW22621   2.803   7.625   4.305 -0.4479 -0.7411  0.3329
 6876SOL    HW122622   2.823   7.620   4.211  0.2038  0.8796  0.3465
 6876SOL    HW222623   2.884   7.598   4.348  0.0586  0.7788  0.3952
 6877SOL     OW22624   7.062   1.485   3.377 -0.2074  0.1686 -0.4879
 6877SOL    HW122625   7.132   1.496   3.441 -0.1147 -1.6301 -0.2521
 6877SOL    HW222626   6.991   1.443   3.426 -0.9006  0.6108 -1.0867
 6878SOL     OW22627   0.879   6.438   8.117  0.6332 -0.0638 -0.5120
 6878SOL    HW122628   0.857   6.472   8.203  0.4852  1.5012 -1.1336
 6878SOL    HW222629   0.798   6.398   8.085  0.4292  0.1881 -0.3081
 6879SOL     OW22630   5.785   8.532   6.061 -0.2232 -0.1603 -0.1616
 6879SOL    HW122631   5.823   8.595   6.122 -1.1543  0.5755 -0.3196
 6879SOL    HW222632   5.850   8.522   5.992 -0.6861  1.8135 -0.9363
 6880SOL     OW22633   6.677   0.313   8.848  0.6849 -0.1089  0.4817
 6880SOL    HW122634   6.583   0.292   8.851  0.1226  1.3080 -3.0572
 6880SOL    HW222635   6.717   0.239   8.803  1.1761 -0.3117  1.2269
 6881SOL     OW22636   5.612   6.300   4.777 -0.0968 -0.4090  0.2505
 6881SOL    HW122637   5.558   6.221   4.769 -0.5554  0.0393 -1.5552
 6881SOL    HW222638   5.556   6.364   4.820 -0.2102 -0.6447  0.4508
 6882SOL     OW22639   7.578   8.489   4.439 -0.0339 -0.1550  0.0593
 6882SOL    HW122640   7.556   8.495   4.532 -0.9266  0.5718 -0.1859
 6882SOL    HW222641   7.623   8.571   4.420  1.1756 -0.7832  0.0921
 6883SOL     OW22642   6.773   0.772   1.377  0.1860 -0.0052  0.4315
 6883SOL    HW122643   6.767   0.727   1.461 -1.2419 -0.3613  0.1645
 6883SOL    HW222644   6.721   0.852   1.390 -0.4085 -0.2826 -0.2558
 6884SOL     OW22645   6.148   7.575   8.667 -0.4799  0.7250 -0.2935
 6884SOL    HW122646   6.194   7.567   8.751  0.0810 -3.1878 -0.8210
 6884SOL    HW222647   6.215   7.611   8.608  0.1496  0.4043  0.2038
 6885SOL     OW22648   0.061   4.255   1.412  0.4307  0.0578 -0.3112
 6885SOL    HW122649   0.019   4.223   1.492  0.0239  0.3927 -0.3880
 6885SOL    HW222650  -0.012   4.279   1.355  0.7254  0.3564 -0.5631
 6886SOL     OW22651   6.533   0.152   0.603  0.2196 -0.5570  0.1664
 6886SOL    HW122652   6.597   0.216   0.634 -0.2315  0.6335 -1.2162
 6886SOL    HW222653   6.585   0.087   0.556  0.8065 -1.9158  2.5191
 6887SOL     OW22654   7.224   5.579   5.926 -0.0596 -0.3453 -0.4984
 6887SOL    HW122655   7.293   5.532   5.972 -1.3166 -1.6213  0.1878
 6887SOL    HW222656   7.146   5.566   5.980 -1.1450 -0.1647 -1.9369
 6888SOL     OW22657   4.477   8.174   0.735 -0.3286 -0.5434  0.6995
 6888SOL    HW122658   4.567   8.195   0.760 -0.5456 -0.4409  1.4220
 6888SOL    HW222659   4.423   8.213   0.805 -1.0607  1.0731 -0.6953
 6889SOL     OW22660   5.486   8.045   5.380  0.3978 -0.0554 -0.5642
 6889SOL    HW122661   5.481   7.976   5.446  0.9432  0.8946  0.5165
 6889SOL    HW222662   5.551   8.107   5.415 -0.9257  1.6042 -0.9070
 6890SOL     OW22663   1.008   5.405   3.565  0.1719  0.0731  0.6772
 6890SOL    HW122664   1.034   5.472   3.627 -0.7125  1.0069  0.0745
 6890SOL    HW222665   1.071   5.413   3.493  0.6834 -0.4407  1.0609
 6891SOL     OW22666   8.215   3.727   0.447 -0.2273 -0.9358  0.0283
 6891SOL    HW122667   8.137   3.719   0.392  0.0141 -0.8737 -0.3210
 6891SOL    HW222668   8.252   3.812   0.423 -0.4884 -0.6031  0.7616
 6892SOL     OW22669   4.622   2.980   8.073  0.2742 -0.5203 -0.1526
 6892SOL    HW122670   4.550   3.038   8.049  0.3718 -0.6991 -0.9001
 6892SOL    HW222671   4.628   2.918   8.001  0.6126 -1.0459  0.3232
 6893SOL     OW22672   4.380   0.307   0.460 -0.0936  0.0524 -0.1727
 6893SOL    HW122673   4.444   0.376   0.477  0.6330 -0.2877 -1.4231
 6893SOL    HW222674   4.297   0.354   0.452  0.1975  0.6444  0.1758
 6894SOL     OW22675   7.705   2.878   4.484  0.6527  0.3478 -0.2974
 6894SOL    HW122676   7.703   2.815   4.412  3.8232  1.2513 -1.3181
 6894SOL    HW222677   7.703   2.964   4.441 -1.3896  1.0323  0.9726
 6895SOL     OW22678   0.565   4.006   1.324  0.0883 -0.1678  0.1414
 6895SOL    HW122679   0.520   3.922   1.310 -0.7205  0.0123  1.4376
 6895SOL    HW222680   0.494   4.069   1.339  0.7206  0.0299  2.7698
 6896SOL     OW22681   5.278   0.781   6.607  0.2611  0.2295  0.1003
 6896SOL    HW122682   5.212   0.781   6.538 -0.3065  0.8096  0.6185
 6896SOL    HW222683   5.349   0.728   6.573 -0.5155 -0.4913 -0.4371
 6897SOL     OW22684   2.029   8.295   2.770  0.4390  0.0952  0.3123
 6897SOL    HW122685   2.050   8.334   2.685  0.5745 -0.1402  0.2378
 6897SOL    HW222686   2.082   8.216   2.774  1.9000  1.0810  1.4335
 6898SOL     OW22687   1.799   1.908   6.727  0.0197 -0.0359  0.1196
 6898SOL    HW122688   1.838   1.853   6.794  1.2974  0.4947 -0.1518
 6898SOL    HW222689   1.850   1.890   6.648  0.1690  1.1667 -0.0899
 6899SOL     OW22690   7.790   0.008   0.898  1.2151 -0.3575 -0.0844
 6899SOL    HW122691   7.759   0.042   0.982 -0.2788 -2.4030  0.2767
 6899SOL    HW222692   7.718   0.024   0.837  1.6349 -0.3383 -0.5842
 6900SOL     OW22693   0.976   0.928   3.436  0.1286  0.5564  0.0326
 6900SOL    HW122694   0.966   0.931   3.531 -0.6134  2.5664 -0.0553
 6900SOL    HW222695   0.972   0.835   3.414 -1.1144  0.1362  1.8173
 6901SOL     OW22696   2.208   8.200   5.215 -0.0419  0.4164 -0.2107
 6901SOL    HW122697   2.215   8.256   5.138  1.5043  2.5086  1.3652
 6901SOL    HW222698   2.259   8.122   5.192  0.8400  1.2345 -1.1391
 6902SOL     OW22699   4.789   4.087   7.001 -0.5772 -0.0483 -0.5320
 6902SOL    HW122700   4.726   4.038   6.947 -0.8248  0.0212 -0.3101
 6902SOL    HW222701   4.871   4.082   6.952 -0.5972 -0.6929 -0.5089
 6903SOL     OW22702   6.381   7.037   7.331  0.2418 -0.0727 -0.0944
 6903SOL    HW122703   6.442   6.964   7.339 -1.5118 -1.4034  2.4771
 6903SOL    HW222704   6.300   6.997   7.301 -0.3870  1.0659  0.0280
 6904SOL     OW22705   7.153   4.091   6.918  0.4737  0.0332  0.2103
 6904SOL    HW122706   7.123   4.002   6.941 -2.1093  0.4755 -0.9872
 6904SOL    HW222707   7.242   4.079   6.885 -0.1836 -2.3520 -0.9655
 6905SOL     OW22708   7.120   2.527   1.034  0.3250  0.1167  0.0745
 6905SOL    HW122709   7.044   2.496   0.985  0.3814 -0.2590  0.2248
 6905SOL    HW222710   7.116   2.622   1.025  0.2371  0.0642 -0.5181
 6906SOL     OW22711   5.054   6.716   7.773 -0.0207  0.2131 -0.1486
 6906SOL    HW122712   5.037   6.680   7.860 -1.9277 -1.3922 -1.0918
 6906SOL    HW222713   5.143   6.751   7.778 -0.1170  0.2538  2.4446
 6907SOL     OW22714   3.828   0.954   0.874  0.3762 -0.7933  0.0709
 6907SOL    HW122715   3.891   0.958   0.803  0.0823  0.4660 -0.1571
 6907SOL    HW222716   3.745   0.928   0.833 -0.1527  1.3803 -0.3736
 6908SOL     OW22717   6.707   7.957   1.458 -0.3241  0.3764 -0.5186
 6908SOL    HW122718   6.622   7.971   1.499  0.0193  0.3403  0.2267
 6908SOL    HW222719   6.690   7.961   1.364 -1.2778 -0.4366 -0.3891
 6909SOL     OW22720   3.317   4.829   0.555 -0.4125  0.4823  0.4632
 6909SOL    HW122721   3.303   4.770   0.629 -0.6126  0.1665  0.1734
 6909SOL    HW222722   3.300   4.917   0.591 -1.7055  0.2397  0.4889
 6910SOL     OW22723   2.725   4.569   5.771 -0.3082  0.2437 -0.0553
 6910SOL    HW122724   2.749   4.477   5.763  0.2266  0.3496  0.2897
 6910SOL    HW222725   2.775   4.601   5.846 -2.7087  0.0932  1.7445
 6911SOL     OW22726   4.495   8.860   8.430 -0.0964  1.1082  0.2029
 6911SOL    HW122727   4.474   8.771   8.456 -2.6870  1.4157 -0.5584
 6911SOL    HW222728   4.542   8.897   8.505  0.6718 -0.7346  0.6778
 6912SOL     OW22729   0.255   0.399   7.841 -0.5203 -0.6738 -0.0850
 6912SOL    HW122730   0.288   0.474   7.892 -1.9890  1.0121 -1.4508
 6912SOL    HW222731   0.305   0.324   7.873  1.0320  0.8814  1.3659
 6913SOL     OW22732   1.428   4.861   7.097  0.0335 -0.3237  0.4878
 6913SOL    HW122733   1.336   4.869   7.120 -0.3242 -1.5299 -0.3996
 6913SOL    HW222734   1.434   4.893   7.007 -0.3156 -3.6698 -0.8885
 6914SOL     OW22735   3.058   3.719   4.214 -0.0283 -0.3205 -0.3740
 6914SOL    HW122736   2.984   3.710   4.274 -2.3059 -0.0439 -2.9708
 6914SOL    HW222737   3.063   3.813   4.197 -0.6233 -0.5496 -1.9680
 6915SOL     OW22738   2.843   0.261   2.267 -0.1202  0.7898  0.3983
 6915SOL    HW122739   2.810   0.289   2.181 -1.9846 -1.0233  0.4495
 6915SOL    HW222740   2.769   0.275   2.326  0.9228  1.3808  1.6078
 6916SOL     OW22741   2.207   4.403   2.975 -0.1472  0.2347 -0.3163
 6916SOL    HW122742   2.258   4.437   2.902 -0.6339 -1.0522 -1.2874
 6916SOL    HW222743   2.247   4.319   2.996 -1.0757 -0.2107 -0.2564
 6917SOL     OW22744   5.934   0.464   7.809  0.2295 -0.2529  0.0214
 6917SOL    HW122745   5.898   0.433   7.892  0.4920 -0.7303 -0.0391
 6917SOL    HW222746   5.863   0.453   7.746 -0.0072  0.2115  0.1972
 6918SOL     OW22747   7.745   2.238   2.691  0.2253  0.4008 -0.2024
 6918SOL    HW122748   7.737   2.160   2.746 -2.3940  0.6770 -0.0541
 6918SOL    HW222749   7.839   2.251   2.681  0.7581 -1.3017  1.8612
 6919SOL     OW22750   1.682   4.123   6.220  0.3648  0.2712 -0.4872
 6919SOL    HW122751   1.670   4.066   6.297  1.9735  0.5614  0.0224
 6919SOL    HW222752   1.679   4.063   6.145  0.6376 -0.2945 -0.0580
 6920SOL     OW22753   8.649   0.851   5.533 -0.1144  0.2501  0.2657
 6920SOL    HW122754   8.562   0.861   5.495  0.6773 -2.7622 -2.8201
 6920SOL    HW222755   8.648   0.763   5.571  2.0655 -0.6584 -1.5794
 6921SOL     OW22756   4.951   2.263   8.519 -0.1827 -0.4356  0.4549
 6921SOL    HW122757   5.014   2.332   8.539  0.6409 -0.3100 -2.1781
 6921SOL    HW222758   4.865   2.305   8.532  0.2822  0.3403  1.1432
 6922SOL     OW22759   4.977   8.848   2.896  0.1136 -0.1316 -0.0976
 6922SOL    HW122760   5.062   8.836   2.853  0.5823 -0.9456  1.0150
 6922SOL    HW222761   4.943   8.759   2.907  0.1330  0.0271  1.4364
 6923SOL     OW22762   7.768   7.410   8.852 -0.0011  0.0497  0.6212
 6923SOL    HW122763   7.752   7.411   8.946 -0.0722 -0.6139  0.6193
 6923SOL    HW222764   7.725   7.489   8.820 -0.9682 -0.3072  0.9952
 6924SOL     OW22765   1.598   1.962   5.081 -0.3246 -0.5355 -0.2000
 6924SOL    HW122766   1.691   1.950   5.064  0.1377  0.6750  1.2918
 6924SOL    HW222767   1.582   1.916   5.163 -0.6805  0.5644  0.3641
 6925SOL     OW22768   1.651   6.206   0.831 -0.4952  0.0578  0.6442
 6925SOL    HW122769   1.629   6.289   0.789 -1.1322  0.0557  0.9622
 6925SOL    HW222770   1.617   6.215   0.920 -0.7704 -0.6310  0.6101
 6926SOL     OW22771   0.785   8.698   1.185  0.5679  0.2632 -0.7414
 6926SOL    HW122772   0.825   8.670   1.103 -1.4600 -3.0829 -0.7887
 6926SOL    HW222773   0.691   8.689   1.170  0.0941  0.4435  1.6676
 6927SOL     OW22774   6.854   0.855   8.179  0.0347 -0.1233  0.2890
 6927SOL    HW122775   6.760   0.842   8.164 -0.2075 -0.7376  2.1353
 6927SOL    HW222776   6.859   0.910   8.257  1.2281  0.7456 -0.3655
 6928SOL     OW22777   0.564   4.981   8.814  1.0614 -0.2447 -0.0912
 6928SOL    HW122778   0.606   5.008   8.896  0.3435 -1.1370  0.5976
 6928SOL    HW222779   0.534   4.892   8.831  0.8114 -0.4054 -1.3045
 6929SOL     OW22780   1.469   2.758   6.099  0.8192  0.2203 -0.2314
 6929SOL    HW122781   1.559   2.790   6.096  0.8169  0.2441 -0.0157
 6929SOL    HW222782   1.476   2.665   6.077  0.8335  0.3476 -0.7799
 6930SOL     OW22783   6.984   0.487   2.865 -0.8064  0.5975  0.1196
 6930SOL    HW122784   7.033   0.536   2.931 -2.0359  0.3041  1.2849
 6930SOL    HW222785   7.013   0.397   2.875 -0.7184  0.6095 -0.0144
 6931SOL     OW22786   5.717   5.094   2.405 -0.5157 -0.1271 -0.0581
 6931SOL    HW122787   5.789   5.035   2.427 -0.3511  0.6651  1.6751
 6931SOL    HW222788   5.671   5.108   2.488 -1.4195  1.0186 -0.7230
 6932SOL     OW22789   1.163   3.694   8.248  0.4345 -0.5275  0.7128
 6932SOL    HW122790   1.087   3.640   8.271  0.8103 -1.1436  0.5571
 6932SOL    HW222791   1.228   3.631   8.216  0.0446  0.2505 -1.8080
 6933SOL     OW22792   1.464   0.218   4.214  0.1392 -0.4272  0.6827
 6933SOL    HW122793   1.481   0.279   4.142 -1.6004 -0.8513 -0.1349
 6933SOL    HW222794   1.548   0.212   4.260  1.4621 -0.5037 -1.5825
 6934SOL     OW22795   0.300   6.292   3.319 -0.1444 -0.1695  0.3849
 6934SOL    HW122796   0.304   6.208   3.366 -0.7126 -0.9949 -0.9786
 6934SOL    HW222797   0.208   6.316   3.322 -0.5741 -1.2507 -1.9304
 6935SOL     OW22798   5.149   4.835   3.892  0.5427 -0.2117  0.1878
 6935SOL    HW122799   5.090   4.760   3.882 -0.2052  0.3203  0.5392
 6935SOL    HW222800   5.236   4.796   3.899  0.4118 -0.9525 -1.6344
 6936SOL     OW22801   3.365   8.151   0.512 -0.6231 -0.0238 -0.3604
 6936SOL    HW122802   3.429   8.206   0.558 -1.8636 -0.0248  1.4632
 6936SOL    HW222803   3.307   8.214   0.469 -1.3715  0.1092  0.7957
 6937SOL     OW22804   4.705   1.227   3.335 -0.2276 -0.1458 -0.1674
 6937SOL    HW122805   4.737   1.212   3.424  0.1266 -2.2717 -0.6013
 6937SOL    HW222806   4.618   1.188   3.334 -0.6898  0.8709 -0.4598
 6938SOL     OW22807   3.088   7.833   3.904 -0.6727  0.4597  0.3789
 6938SOL    HW122808   3.041   7.859   3.984  0.3493  1.0901  0.7865
 6938SOL    HW222809   3.123   7.746   3.925 -1.8418 -0.1346 -0.0224
 6939SOL     OW22810   6.510   5.887   5.218 -0.1098  0.1023 -0.0075
 6939SOL    HW122811   6.441   5.952   5.212 -0.6977 -0.5141 -0.0610
 6939SOL    HW222812   6.517   5.867   5.311 -0.7054 -0.5684 -0.1019
 6940SOL     OW22813   7.950   4.195   1.145 -0.7180  0.4997  1.0606
 6940SOL    HW122814   7.988   4.283   1.144  1.2909 -0.2723 -1.3642
 6940SOL    HW222815   7.937   4.175   1.238  0.6905  2.5704  1.7667
 6941SOL     OW22816   8.087   3.150   4.267 -0.0327 -0.3484  0.2693
 6941SOL    HW122817   8.160   3.158   4.206 -1.6307 -1.8928 -2.0373
 6941SOL    HW222818   8.122   3.098   4.339  1.1953 -0.9791 -0.7353
 6942SOL     OW22819   8.672   5.143   3.182 -0.0244  0.4095 -0.1058
 6942SOL    HW122820   8.674   5.076   3.113 -0.4506 -1.6303  1.7496
 6942SOL    HW222821   8.685   5.094   3.263  1.7815  2.8685  1.2222
 6943SOL     OW22822   3.396   3.910   4.665  0.2161  0.3647 -0.9460
 6943SOL    HW122823   3.413   3.821   4.696 -1.4366  0.5397  0.6140
 6943SOL    HW222824   3.474   3.959   4.690  0.4943 -0.3282 -0.4184
 6944SOL     OW22825   4.051   2.594   3.090  0.0115  0.0091  0.0015
 6944SOL    HW122826   4.040   2.666   3.027 -0.6911  1.2504  1.4675
 6944SOL    HW222827   3.996   2.523   3.055  0.3335  0.3335 -1.2293
 6945SOL     OW22828   0.788   8.098   1.250  0.1033 -0.3366 -0.4025
 6945SOL    HW122829   0.827   8.084   1.336 -0.8059  0.1420  0.1056
 6945SOL    HW222830   0.799   8.014   1.205  0.3432 -0.6816  0.2819
 6946SOL     OW22831   4.385   7.794   8.723  0.6808 -0.3571  0.0172
 6946SOL    HW122832   4.396   7.814   8.816  1.3452  0.6319 -0.2564
 6946SOL    HW222833   4.298   7.828   8.702  0.5098 -0.6257  0.2876
 6947SOL     OW22834   1.306   8.496   3.062  0.3141 -0.2537 -0.4340
 6947SOL    HW122835   1.228   8.491   3.116  0.1312 -0.6657 -0.7305
 6947SOL    HW222836   1.279   8.550   2.987  0.7404  0.8273  0.1662
 6948SOL     OW22837   5.108   7.169   0.055 -0.6441 -0.1211 -0.6309
 6948SOL    HW122838   5.190   7.140   0.014  0.1971  1.0897  0.0942
 6948SOL    HW222839   5.047   7.097   0.043 -0.0064 -0.3767 -2.7320
 6949SOL     OW22840   7.760   8.209   1.807  0.2617 -0.0260  0.4430
 6949SOL    HW122841   7.684   8.267   1.790 -1.1933 -1.7619  0.7483
 6949SOL    HW222842   7.770   8.211   1.902 -1.1988 -1.8803  0.6937
 6950SOL     OW22843   1.223   6.872   7.968 -0.2658 -0.2899  0.6767
 6950SOL    HW122844   1.309   6.913   7.963  0.3932 -1.7058  0.1428
 6950SOL    HW222845   1.240   6.778   7.972 -1.8161 -0.7359 -1.4758
 6951SOL     OW22846   7.205   1.332   8.888  0.1674  0.1108  0.6727
 6951SOL    HW122847   7.170   1.403   8.942 -0.2061  0.8405 -0.4685
 6951SOL    HW222848   7.265   1.285   8.945 -0.0277  0.9979  1.6369
 6952SOL     OW22849   6.842   1.495   5.352 -0.4112  0.0089  0.8099
 6952SOL    HW122850   6.901   1.500   5.427  2.1649  1.7125 -1.1189
 6952SOL    HW222851   6.831   1.586   5.324 -2.0252 -0.4920 -0.3750
 6953SOL     OW22852   4.594   8.304   2.515  0.3854  0.2621 -0.6604
 6953SOL    HW122853   4.607   8.256   2.433 -0.8973 -0.3702 -0.5040
 6953SOL    HW222854   4.528   8.254   2.563  0.7384  0.9067  0.5436
 6954SOL     OW22855   8.545   8.876   0.458  0.0703 -0.5729 -0.2441
 6954SOL    HW122856   8.482   8.862   0.529 -1.0179  2.0663 -0.5553
 6954SOL    HW222857   8.517   8.818   0.388 -1.6066 -0.0120 -0.0849
 6955SOL     OW22858   5.257   1.395   3.180  0.0306  0.3406  0.2935
 6955SOL    HW122859   5.165   1.404   3.201  0.2612 -0.8160  1.9736
 6955SOL    HW222860   5.259   1.354   3.093 -1.0510 -0.5357  0.6680
 6956SOL     OW22861   4.833   6.602   2.469  0.1683  0.1271 -0.2821
 6956SOL    HW122862   4.859   6.522   2.515  0.0619  0.5731  0.5709
 6956SOL    HW222863   4.903   6.664   2.488 -1.2868  1.2455  1.7908
 6957SOL     OW22864   7.988   7.369   5.507  0.5319  0.3085 -0.0168
 6957SOL    HW122865   8.063   7.412   5.465  0.5631  0.0315 -0.2479
 6957SOL    HW222866   7.918   7.434   5.504  1.0817  0.9887  1.2155
 6958SOL     OW22867   6.647   1.596   5.998  0.7503  0.1512  0.0109
 6958SOL    HW122868   6.629   1.506   6.024 -0.0112 -0.0071 -1.0308
 6958SOL    HW222869   6.579   1.618   5.936  1.5653  1.0856 -0.5936
 6959SOL     OW22870   6.851   4.943   3.622 -0.5386 -0.1122 -0.0465
 6959SOL    HW122871   6.860   4.848   3.622  1.2570  0.0338 -0.6689
 6959SOL    HW222872   6.790   4.961   3.694  0.5807 -1.6078  1.3501
 6960SOL     OW22873   3.170   2.684   0.350 -0.2277 -0.1392  0.1192
 6960SOL    HW122874   3.091   2.727   0.316  0.6413  0.4877 -1.1741
 6960SOL    HW222875   3.146   2.592   0.356 -0.8607 -0.0490 -0.8821
 6961SOL     OW22876   2.906   8.094   5.074  0.5692 -0.1758 -0.1728
 6961SOL    HW122877   2.999   8.102   5.054  0.6104  1.3242  0.4791
 6961SOL    HW222878   2.902   8.092   5.170 -0.0505 -0.7580 -0.1979
 6962SOL     OW22879   4.266   6.340   6.640 -0.3131 -0.1292  0.2838
 6962SOL    HW122880   4.333   6.302   6.697 -0.0689  1.8373  1.4044
 6962SOL    HW222881   4.276   6.434   6.652 -1.6938  0.2701 -1.4088
 6963SOL     OW22882   6.807   1.835   3.467 -0.1581 -0.2422 -0.0531
 6963SOL    HW122883   6.883   1.832   3.525  2.4514 -0.2165 -3.1934
 6963SOL    HW222884   6.764   1.918   3.489  0.7735 -0.1934  1.7486
 6964SOL     OW22885   2.333   6.598   8.249 -0.4852 -0.0361 -0.0489
 6964SOL    HW122886   2.353   6.546   8.327  1.3962 -0.0439 -0.4897
 6964SOL    HW222887   2.303   6.682   8.283 -2.1010 -0.8511  0.6622
 6965SOL     OW22888   1.470   2.065   1.205 -0.6430 -0.1417  0.2981
 6965SOL    HW122889   1.523   2.120   1.263  0.0320 -0.7538  0.2764
 6965SOL    HW222890   1.517   1.982   1.201 -1.3919 -0.5596 -0.0610
 6966SOL     OW22891   4.261   1.103   0.240 -0.3408 -0.2919 -0.2865
 6966SOL    HW122892   4.306   1.187   0.241  2.7658 -1.7968 -1.2782
 6966SOL    HW222893   4.254   1.078   0.332 -0.8279  0.7842 -0.0150
 6967SOL     OW22894   2.730   0.596   6.519  0.3132  0.1817 -0.4292
 6967SOL    HW122895   2.768   0.590   6.607  1.2764  0.2115 -0.8323
 6967SOL    HW222896   2.803   0.624   6.464 -0.3982  0.6103 -1.1623
 6968SOL     OW22897   3.303   3.728   5.973  0.0414  0.4849  0.3165
 6968SOL    HW122898   3.345   3.811   5.950  0.6839  0.2059  0.4418
 6968SOL    HW222899   3.250   3.748   6.050  1.1310  0.5321  1.0746
 6969SOL     OW22900   6.412   1.928   1.591  0.3462 -0.1249 -0.6436
 6969SOL    HW122901   6.450   1.848   1.628 -0.2959 -0.6752 -1.1317
 6969SOL    HW222902   6.360   1.965   1.662 -1.1503 -1.3546 -1.0443
 6970SOL     OW22903   4.767   7.275   5.280 -0.1868  0.4913  0.0861
 6970SOL    HW122904   4.796   7.185   5.264  0.4632  0.3623  1.8227
 6970SOL    HW222905   4.811   7.327   5.213  1.4111 -0.1698  0.5832
 6971SOL     OW22906   0.868   2.621   1.916  0.1498 -0.1925 -0.1469
 6971SOL    HW122907   0.931   2.684   1.882 -1.1340  0.4664 -1.4212
 6971SOL    HW222908   0.899   2.536   1.885  0.4917  0.0974 -0.6043
 6972SOL     OW22909   8.087   1.922   2.372  0.5049 -0.6254  0.3010
 6972SOL    HW122910   8.078   1.879   2.287  1.4135 -1.1204  0.4377
 6972SOL    HW222911   8.135   2.002   2.353 -1.1552  0.3537  0.0524
 6973SOL     OW22912   8.193   1.619   3.709 -0.6732 -0.7107  0.1840
 6973SOL    HW122913   8.117   1.644   3.656 -1.0570  1.2964  1.5594
 6973SOL    HW222914   8.158   1.562   3.777 -0.4317 -2.0784 -0.8057
 6974SOL     OW22915   0.149   3.702   0.673 -0.1930  0.3164 -1.0201
 6974SOL    HW122916   0.083   3.692   0.604 -0.0156 -1.7300 -0.9562
 6974SOL    HW222917   0.229   3.666   0.635 -0.1468 -1.0909  0.2870
 6975SOL     OW22918   1.796   1.918   4.028  0.2067 -0.3063  0.6204
 6975SOL    HW122919   1.758   1.997   4.067 -0.4722 -0.7383  0.8597
 6975SOL    HW222920   1.779   1.849   4.093  0.7034 -0.6673  0.3721
 6976SOL     OW22921   3.068   5.317   6.915 -0.6572  0.1234 -0.0674
 6976SOL    HW122922   3.071   5.410   6.891 -1.5771  0.6451  1.6617
 6976SOL    HW222923   3.119   5.312   6.995  0.9220 -1.2511 -1.0889
 6977SOL     OW22924   0.038   6.905   4.542  0.1835 -0.0120 -0.1278
 6977SOL    HW122925   0.098   6.830   4.545 -1.1096 -1.0596  1.1241
 6977SOL    HW222926   0.085   6.974   4.589  1.4230  0.0383 -1.3603
 6978SOL     OW22927   6.035   2.406   8.206  0.2253 -0.1976  0.8601
 6978SOL    HW122928   6.014   2.393   8.114 -0.5057 -0.0180  0.9958
 6978SOL    HW222929   6.085   2.488   8.208  0.9071 -0.6036  0.5386
 6979SOL     OW22930   1.867   3.031   4.013  0.4605 -0.2123 -0.2659
 6979SOL    HW122931   1.781   2.999   4.038  1.1274 -1.4521  0.5747
 6979SOL    HW222932   1.851   3.115   3.970 -1.1492 -0.4391 -0.1415
 6980SOL     OW22933   8.230   0.244   4.639  0.2462  0.1462 -0.0959
 6980SOL    HW122934   8.205   0.180   4.706  1.0961 -0.8311 -0.6672
 6980SOL    HW222935   8.174   0.223   4.565  0.5038  0.0767 -0.2724
 6981SOL     OW22936   2.870   1.205   0.210 -0.1901  0.2120  0.8880
 6981SOL    HW122937   2.930   1.152   0.158  0.1562  0.6203  0.8728
 6981SOL    HW222938   2.860   1.286   0.160 -0.7939  0.1288  0.8635
 6982SOL     OW22939   2.655   7.206   5.622  0.0991 -0.3363 -0.1372
 6982SOL    HW122940   2.663   7.272   5.553  2.7281 -1.3549 -0.9072
 6982SOL    HW222941   2.623   7.128   5.576 -1.4703 -0.1012  0.4872
 6983SOL     OW22942   7.433   7.319   3.347  0.1151 -0.9836  0.0245
 6983SOL    HW122943   7.417   7.267   3.268  0.0852 -2.8066  1.1771
 6983SOL    HW222944   7.470   7.257   3.409 -2.8470 -0.4131  2.5728
 6984SOL     OW22945   7.056   7.522   1.504  0.3592  0.1452 -0.4506
 6984SOL    HW122946   7.038   7.429   1.522  0.9657  0.0733 -0.1997
 6984SOL    HW222947   6.985   7.549   1.446 -1.0246  0.0720  1.1231
 6985SOL     OW22948   4.419   2.937   3.162  0.2996 -0.7078 -0.0599
 6985SOL    HW122949   4.397   2.943   3.069 -0.3645  0.3751  0.1470
 6985SOL    HW222950   4.513   2.922   3.164  1.1389  3.2434 -0.9204
 6986SOL     OW22951   3.470   7.809   1.601 -0.3380  0.1231 -0.4701
 6986SOL    HW122952   3.564   7.826   1.591 -0.3322 -1.0310 -2.9324
 6986SOL    HW222953   3.434   7.894   1.630  1.4408  0.5040  0.8504
 6987SOL     OW22954   8.628   6.076   5.807 -0.3695  0.5487  0.4052
 6987SOL    HW122955   8.621   5.993   5.854  0.6962 -0.1927 -0.7109
 6987SOL    HW222956   8.693   6.126   5.857  0.7645 -0.2390 -0.2509
 6988SOL     OW22957   1.575   3.412   6.488 -0.2234 -0.4644 -0.1003
 6988SOL    HW122958   1.507   3.346   6.504  0.3212 -1.3182 -1.1755
 6988SOL    HW222959   1.612   3.429   6.575 -1.1609 -0.6766  0.3631
 6989SOL     OW22960   4.640   2.652   2.060 -0.6887  0.3073 -0.4443
 6989SOL    HW122961   4.550   2.629   2.081 -0.6639  1.7030  1.5166
 6989SOL    HW222962   4.683   2.661   2.145  1.1020  0.4584 -1.3148
 6990SOL     OW22963   5.608   4.325   4.398  0.3584  0.9384 -0.1264
 6990SOL    HW122964   5.614   4.232   4.421 -0.2633  0.6749 -1.0030
 6990SOL    HW222965   5.690   4.343   4.352  0.7213  0.9706  0.5167
 6991SOL     OW22966   8.583   0.434   1.548 -0.6090 -0.5201  0.2688
 6991SOL    HW122967   8.672   0.400   1.559 -0.1075  1.0739  1.3456
 6991SOL    HW222968   8.586   0.523   1.582 -1.9601  0.5579 -2.1387
 6992SOL     OW22969   5.424   1.904   8.185 -0.1914 -0.0770  0.5320
 6992SOL    HW122970   5.450   1.992   8.211 -1.7225  0.3770  0.6259
 6992SOL    HW222971   5.377   1.869   8.261 -1.1098 -0.2957 -0.1118
 6993SOL     OW22972   2.760   1.928   2.484  0.3075 -0.2286 -0.2542
 6993SOL    HW122973   2.779   1.909   2.392 -0.6594 -2.1284 -0.1259
 6993SOL    HW222974   2.787   1.848   2.530 -1.5727 -0.3206  0.7661
 6994SOL     OW22975   3.677   4.935   2.250  0.3668  0.0115 -0.0188
 6994SOL    HW122976   3.593   4.912   2.289  1.8085 -1.1134  2.6970
 6994SOL    HW222977   3.722   4.851   2.239  0.4528  0.3716 -3.3897
 6995SOL     OW22978   8.888   5.892   3.487  0.1811 -0.1988  0.1553
 6995SOL    HW122979   8.848   5.879   3.401 -1.2285  0.6271  0.6578
 6995SOL    HW222980   8.886   5.806   3.528  0.5820 -0.5333 -0.5068
 6996SOL     OW22981   2.067   1.602   6.499  0.6112  0.5326  0.0671
 6996SOL    HW122982   1.991   1.581   6.444  0.1196 -1.0774  1.2790
 6996SOL    HW222983   2.047   1.689   6.533 -0.6458  0.2012  0.2526
 6997SOL     OW22984   1.906   7.739   2.949 -0.0082  0.0114 -0.5408
 6997SOL    HW122985   1.847   7.687   2.893  0.3708 -2.9677  1.5849
 6997SOL    HW222986   1.848   7.785   3.009 -0.2948  1.0802 -1.5932
 6998SOL     OW22987   3.242   6.940   7.106 -0.2375 -0.0256  0.0929
 6998SOL    HW122988   3.156   6.897   7.112 -1.1820  1.9030  1.2342
 6998SOL    HW222989   3.258   6.949   7.012 -1.9784  0.8313 -0.1625
 6999SOL     OW22990   4.850   6.752   5.340  0.1929 -0.3855  0.5657
 6999SOL    HW122991   4.854   6.721   5.249 -1.2119  1.0396 -0.0247
 6999SOL    HW222992   4.796   6.688   5.386 -0.4983 -0.2321 -0.0180
 7000SOL     OW22993   5.255   0.180   0.318  0.6290  0.5340 -0.4565
 7000SOL    HW122994   5.271   0.111   0.382  0.6277 -0.5109 -1.5487
 7000SOL    HW222995   5.162   0.202   0.329  0.2612 -0.6513 -1.0513
 7001SOL     OW22996   5.072   4.329   1.022 -0.3101 -0.0701  0.1596
 7001SOL    HW122997   5.054   4.299   0.933 -1.8931  2.2521 -0.3999
 7001SOL    HW222998   5.166   4.350   1.021  0.1059 -1.7938 -0.3476
 7002SOL     OW22999   3.786   8.741   6.748 -0.1573 -0.2379  0.5672
 7002SOL    HW123000   3.740   8.751   6.831 -0.2120 -0.1474  0.5267
 7002SOL    HW223001   3.760   8.654   6.717 -1.2588  0.2849 -0.0308
 7003SOL     OW23002   5.616   1.357   3.934 -0.3473  0.5767  0.0810
 7003SOL    HW123003   5.619   1.452   3.943  1.9021  0.6269 -0.6091
 7003SOL    HW223004   5.569   1.327   4.011 -0.2057  2.2048  0.8354
 7004SOL     OW23005   1.800   8.247   7.608 -0.5655 -0.0277 -0.1169
 7004SOL    HW123006   1.709   8.268   7.586 -0.8302  0.7481  1.5993
 7004SOL    HW223007   1.826   8.316   7.669  0.7964 -0.9258  0.3440
 7005SOL     OW23008   5.786   1.747   1.832  0.4714 -0.5964 -0.0788
 7005SOL    HW123009   5.788   1.829   1.881  2.2866 -0.8839  0.4211
 7005SOL    HW223010   5.728   1.690   1.882  1.2911 -0.4596  1.0738
 7006SOL     OW23011   7.580   7.763   5.331 -0.0718 -0.4458 -0.2678
 7006SOL    HW123012   7.500   7.815   5.344 -0.2178 -0.6407 -0.3798
 7006SOL    HW223013   7.593   7.718   5.414 -1.3847 -2.2177 -0.9569
 7007SOL     OW23014   4.040   4.281   1.472 -0.6264  0.2548 -0.1658
 7007SOL    HW123015   3.974   4.270   1.541  0.4480 -1.3945  0.6576
 7007SOL    HW223016   3.989   4.284   1.391 -1.7548 -0.1706  0.5044
 7008SOL     OW23017   7.799   8.754   6.088  0.4571  0.3181 -0.0664
 7008SOL    HW123018   7.838   8.701   6.019 -0.0389 -0.5376  0.2923
 7008SOL    HW223019   7.822   8.708   6.169  0.2857  0.8227  0.2726
 7009SOL     OW23020   8.424   4.727   2.149 -0.2526  0.0656  0.0144
 7009SOL    HW123021   8.398   4.752   2.060  1.6854 -0.3891 -0.7328
 7009SOL    HW223022   8.348   4.680   2.184 -0.5674 -0.9493 -1.9163
 7010SOL     OW23023   1.382   6.766   6.118 -0.1056 -0.3291 -0.9052
 7010SOL    HW123024   1.333   6.745   6.038 -0.9291 -1.3267 -0.1550
 7010SOL    HW223025   1.471   6.737   6.100  0.3553  1.7106 -2.3738
 7011SOL     OW23026   4.551   2.271   0.857 -0.2214  0.2498  0.4045
 7011SOL    HW123027   4.570   2.296   0.767 -1.8673 -1.3290 -0.4598
 7011SOL    HW223028   4.601   2.190   0.871 -1.0739 -0.2986  0.3807
 7012SOL     OW23029   1.502   3.794   1.732  0.0090 -0.3227  0.3612
 7012SOL    HW123030   1.431   3.847   1.770 -0.9361 -1.8519  0.8292
 7012SOL    HW223031   1.461   3.752   1.656  0.8166 -0.2221 -0.1363
 7013SOL     OW23032   3.206   7.717   8.521 -0.4557  0.2326 -0.1948
 7013SOL    HW123033   3.258   7.774   8.578  0.0093  0.8629 -1.2238
 7013SOL    HW223034   3.225   7.748   8.433 -2.9948  0.8571 -0.5986
 7014SOL     OW23035   2.781   6.354   7.967  0.3674  0.1742 -0.3393
 7014SOL    HW123036   2.701   6.316   8.005  0.7411  0.7772  1.1010
 7014SOL    HW223037   2.749   6.412   7.898 -0.5881  1.6842  1.2914
 7015SOL     OW23038   5.238   2.306   7.061  0.2089 -0.2969 -0.5142
 7015SOL    HW123039   5.313   2.255   7.029  0.6256  0.8834 -1.5105
 7015SOL    HW223040   5.239   2.385   7.007 -1.2166  0.1557  0.0888
 7016SOL     OW23041   2.401   4.183   6.690  0.2806 -0.1180 -0.0611
 7016SOL    HW123042   2.435   4.266   6.658 -1.8120  1.0808  0.6150
 7016SOL    HW223043   2.363   4.204   6.775 -0.1842 -1.8003  0.1890
 7017SOL     OW23044   4.893   1.331   2.042  0.0226 -0.3878 -0.1244
 7017SOL    HW123045   4.975   1.380   2.035 -0.6131  0.9712  1.2921
 7017SOL    HW223046   4.902   1.282   2.124 -0.8192  0.2587  0.3629
 7018SOL     OW23047   1.434   1.924   4.682 -0.0116 -0.6733  0.1406
 7018SOL    HW123048   1.529   1.927   4.690  0.2436 -0.6410 -2.3649
 7018SOL    HW223049   1.414   1.831   4.670 -0.4411 -0.7984  1.5585
 7019SOL     OW23050   7.655   2.013   2.093  0.5080 -0.5101 -0.1191
 7019SOL    HW123051   7.632   2.103   2.115  0.7748 -0.4647 -0.0175
 7019SOL    HW223052   7.739   2.020   2.047  1.3448 -0.8225  1.2672
 7020SOL     OW23053   3.450   7.993   4.016  0.0335 -0.5264 -0.2514
 7020SOL    HW123054   3.385   7.974   4.083  0.3490 -0.4863  0.0725
 7020SOL    HW223055   3.483   7.908   3.988  0.1625 -0.5293 -0.0917
 7021SOL     OW23056   3.167   7.403   6.157 -0.1950  0.5147  0.2297
 7021SOL    HW123057   3.180   7.398   6.063 -2.6815 -0.4308 -0.1349
 7021SOL    HW223058   3.138   7.316   6.183 -3.4899  1.7026  1.1088
 7022SOL     OW23059   4.026   1.603   4.682 -0.1100 -0.1975 -0.3797
 7022SOL    HW123060   4.058   1.660   4.751  0.0595 -1.4030  0.5500
 7022SOL    HW223061   4.091   1.610   4.612 -1.0238  2.1920 -1.1086
 7023SOL     OW23062   0.608   7.028   0.953 -0.5025  0.0335 -0.2095
 7023SOL    HW123063   0.585   7.119   0.935  1.4676  0.5633 -0.2010
 7023SOL    HW223064   0.703   7.027   0.958 -0.5069 -1.9217  0.4242
 7024SOL     OW23065   8.313   6.436   8.789 -0.6583 -0.5740 -0.1332
 7024SOL    HW123066   8.307   6.532   8.792 -0.0680 -0.5127 -0.6958
 7024SOL    HW223067   8.390   6.418   8.735 -0.8655 -1.3710 -0.1840
 7025SOL     OW23068   6.516   7.930   7.758  0.8000 -0.2730  0.3062
 7025SOL    HW123069   6.461   7.857   7.788 -1.2250  0.7155 -0.7470
 7025SOL    HW223070   6.461   7.975   7.694  2.6310  1.2216 -0.2789
 7026SOL     OW23071   6.681   0.370   1.134 -0.3049  0.4980 -0.0433
 7026SOL    HW123072   6.672   0.276   1.123 -0.9809  0.5619 -0.1120
 7026SOL    HW223073   6.623   0.391   1.208  0.1231  0.8085  0.2089
 7027SOL     OW23074   5.518   0.804   6.156 -0.4594 -0.1954  0.1895
 7027SOL    HW123075   5.550   0.893   6.145  1.2695 -0.9405 -1.3246
 7027SOL    HW223076   5.568   0.770   6.231  0.2523 -0.4576 -0.3938
 7028SOL     OW23077   1.525   7.261   7.384  0.2321  0.1394  0.2506
 7028SOL    HW123078   1.613   7.255   7.346  0.4352 -1.5234  0.9042
 7028SOL    HW223079   1.538   7.248   7.478 -0.6812  0.2735  0.4053
 7029SOL     OW23080   6.362   1.889   7.827  0.0039 -0.7545 -0.5910
 7029SOL    HW123081   6.424   1.855   7.762  0.2908 -1.7431  0.1627
 7029SOL    HW223082   6.413   1.953   7.877  1.0823 -2.7915  1.1656
 7030SOL     OW23083   7.183   4.934   4.227  0.3045  0.1033 -0.1549
 7030SOL    HW123084   7.108   4.963   4.174 -0.2833 -1.6096 -0.3086
 7030SOL    HW223085   7.259   4.970   4.182 -0.0532 -2.3301 -2.9756
 7031SOL     OW23086   8.417   1.366   7.805 -0.4426 -0.0200  0.2899
 7031SOL    HW123087   8.419   1.342   7.713  0.7549 -1.3805  0.6361
 7031SOL    HW223088   8.401   1.461   7.805  1.4529  0.3584 -1.3787
 7032SOL     OW23089   5.273   1.257   4.978 -0.2005 -0.1414 -0.1522
 7032SOL    HW123090   5.202   1.314   4.949 -1.0681 -0.7489  0.6810
 7032SOL    HW223091   5.246   1.169   4.950  1.6288 -0.0609 -2.3756
 7033SOL     OW23092   1.769   7.086   0.177 -0.3471 -0.0672 -0.3764
 7033SOL    HW123093   1.842   7.147   0.185 -1.2796  1.2358 -1.4308
 7033SOL    HW223094   1.755   7.077   0.083 -1.6458 -0.1764 -0.1902
 7034SOL     OW23095   3.947   3.961   0.699  0.0925 -0.0496  0.2424
 7034SOL    HW123096   3.966   3.873   0.667 -0.7191 -0.0552 -0.2441
 7034SOL    HW223097   3.934   4.013   0.620 -0.1358  0.3484  0.5361
 7035SOL     OW23098   4.929   6.539   2.199 -0.0966  0.5299 -0.1912
 7035SOL    HW123099   4.895   6.562   2.286  0.9923 -0.6943  0.6051
 7035SOL    HW223100   4.975   6.456   2.213  0.9013  0.7750 -1.7515
 7036SOL     OW23101   8.332   1.074   0.104  0.6622 -0.2730 -0.2213
 7036SOL    HW123102   8.278   1.020   0.045  0.0502  2.1099 -2.0041
 7036SOL    HW223103   8.290   1.065   0.190 -0.4953 -1.1904 -0.8539
 7037SOL     OW23104   5.605   5.412   0.028  0.9169 -0.4509  0.2293
 7037SOL    HW123105   5.604   5.489  -0.029 -2.7720 -1.1797 -1.0188
 7037SOL    HW223106   5.603   5.337  -0.032 -0.8744 -1.2985  1.2412
 7038SOL     OW23107   3.906   1.893   0.766  0.6222  0.4126 -0.0532
 7038SOL    HW123108   3.922   1.896   0.861  2.2771  1.2371 -0.3129
 7038SOL    HW223109   3.866   1.808   0.752  2.5408 -0.7810  1.1341
 7039SOL     OW23110   7.419   7.820   7.161 -0.3277  0.5122  0.1065
 7039SOL    HW123111   7.348   7.789   7.217  0.0012 -0.5506 -0.0534
 7039SOL    HW223112   7.476   7.744   7.148 -0.3892  0.7287 -1.6742
 7040SOL     OW23113   7.156   4.111   5.006 -0.5148 -0.2680  0.2765
 7040SOL    HW123114   7.144   4.022   4.972 -1.2831  0.1920 -0.6959
 7040SOL    HW223115   7.177   4.164   4.929  0.6350  0.2938  0.9370
 7041SOL     OW23116   4.302   4.367   7.526 -0.1353 -0.1301 -0.1813
 7041SOL    HW123117   4.232   4.337   7.585  0.2193  0.4199  0.5471
 7041SOL    HW223118   4.260   4.431   7.470  0.3326  2.5359  2.2489
 7042SOL     OW23119   2.277   3.132   8.505 -0.9092 -0.1138  0.1926
 7042SOL    HW123120   2.343   3.095   8.563 -3.5089 -1.8917  2.2875
 7042SOL    HW223121   2.274   3.225   8.527 -1.3798 -0.6226  2.6052
 7043SOL     OW23122   3.099   1.898   0.718  0.6210  0.2572 -0.1014
 7043SOL    HW123123   3.085   1.896   0.813  0.1799  2.4295 -0.0613
 7043SOL    HW223124   3.054   1.820   0.685 -1.1716  0.6499  1.2707
 7044SOL     OW23125   1.285   5.671   0.805  0.0064 -0.5176  0.3604
 7044SOL    HW123126   1.271   5.620   0.725  0.9179  1.2346 -0.9985
 7044SOL    HW223127   1.377   5.656   0.826  0.5068  1.1372 -0.5242
 7045SOL     OW23128   1.951   4.088   6.286 -0.0923  0.4668  0.2742
 7045SOL    HW123129   1.961   3.995   6.268  0.1001  0.7615 -1.2574
 7045SOL    HW223130   1.857   4.102   6.288 -0.1261  0.1863  0.8497
 7046SOL     OW23131   2.327   3.612   1.327  0.1854 -0.0655 -0.3623
 7046SOL    HW123132   2.244   3.579   1.361  0.1083 -0.8087 -1.2338
 7046SOL    HW223133   2.363   3.539   1.276  1.3209  0.2850 -0.0939
 7047SOL     OW23134   4.490   1.601   7.373 -0.5333  0.0253  0.0074
 7047SOL    HW123135   4.578   1.607   7.336 -1.0312 -0.9506 -1.4075
 7047SOL    HW223136   4.457   1.516   7.345 -1.8262  0.2403  0.7596
 7048SOL     OW23137   6.895   8.780   0.222  0.2327 -0.5136 -0.0560
 7048SOL    HW123138   6.807   8.769   0.187  0.4466 -1.1676 -0.4093
 7048SOL    HW223139   6.919   8.869   0.200 -0.7542  0.0452  0.9999
 7049SOL     OW23140   3.473   7.113   0.271  0.3069 -0.1887 -0.7698
 7049SOL    HW123141   3.506   7.026   0.292  1.8655  0.4375 -0.5034
 7049SOL    HW223142   3.512   7.170   0.337 -1.8297  0.5429 -0.0570
 7050SOL     OW23143   4.898   0.475   1.615 -0.0582 -0.0365  0.2266
 7050SOL    HW123144   4.968   0.540   1.621 -0.2217  0.3220 -1.4278
 7050SOL    HW223145   4.821   0.520   1.649 -0.1779  0.6886 -0.9326
 7051SOL     OW23146   4.937   0.156   0.775 -0.5836 -0.3561 -0.0595
 7051SOL    HW123147   4.870   0.110   0.826  0.3603  0.3367  1.8813
 7051SOL    HW223148   5.015   0.101   0.782  0.3276  1.0589  1.6089
 7052SOL     OW23149   3.506   4.428   1.830  0.1705  0.4461  0.1741
 7052SOL    HW123150   3.507   4.385   1.744  2.9064  0.6278  0.0055
 7052SOL    HW223151   3.560   4.506   1.817  0.0372  0.8540  1.8989
 7053SOL     OW23152   8.230   6.645   5.212  0.4296  0.5833  0.4006
 7053SOL    HW123153   8.199   6.577   5.153  0.1867  1.1714 -0.1614
 7053SOL    HW223154   8.246   6.600   5.295 -0.1153 -0.0770  0.1496
 7054SOL     OW23155   8.407   5.290   4.319  0.1780 -0.0608  0.4171
 7054SOL    HW123156   8.475   5.346   4.355  0.7754 -0.6782  0.2678
 7054SOL    HW223157   8.432   5.276   4.228 -1.0055  0.9984 -0.1051
 7055SOL     OW23158   0.121   1.153   6.314 -0.3996 -0.0863  0.1217
 7055SOL    HW123159   0.033   1.115   6.314 -0.4314 -0.0653 -1.1371
 7055SOL    HW223160   0.145   1.156   6.221  0.2862  1.4165  0.3312
 7056SOL     OW23161   3.646   7.317   8.807  0.0125 -0.2967  0.3173
 7056SOL    HW123162   3.670   7.282   8.721 -0.4527  2.3840 -1.0095
 7056SOL    HW223163   3.724   7.363   8.837 -0.7225  1.3572 -0.1546
 7057SOL     OW23164   7.485   1.123   4.462  0.3505 -0.1762 -0.3601
 7057SOL    HW123165   7.393   1.095   4.463  0.0681  0.6402  2.1434
 7057SOL    HW223166   7.494   1.171   4.380 -2.0688  1.5324  0.2593
 7058SOL     OW23167   4.691   6.934   3.206 -0.0801 -0.5858  0.2521
 7058SOL    HW123168   4.765   6.994   3.194  0.7123 -1.7688 -1.1111
 7058SOL    HW223169   4.719   6.873   3.274 -0.4282 -0.1363  0.8118
 7059SOL     OW23170   2.755   7.795   3.732  0.4557 -0.5059  0.0379
 7059SOL    HW123171   2.809   7.748   3.795 -0.6150 -1.3056  0.3925
 7059SOL    HW223172   2.676   7.819   3.780  0.2254  0.1011 -0.6234
 7060SOL     OW23173   8.314   1.421   6.025  0.0486  0.4151  0.3884
 7060SOL    HW123174   8.400   1.382   6.042 -0.4709 -0.9781 -0.0350
 7060SOL    HW223175   8.317   1.506   6.069  2.1183  0.9994 -0.7251
 7061SOL     OW23176   1.293   0.975   7.117 -0.4435  0.3562 -0.2013
 7061SOL    HW123177   1.375   0.992   7.163 -1.3208  0.6202  1.3348
 7061SOL    HW223178   1.249   1.059   7.113 -0.8924  0.1127 -0.5062
 7062SOL     OW23179   4.314   0.540   6.226  0.6003 -0.1347 -0.4845
 7062SOL    HW123180   4.273   0.454   6.218  3.2977 -1.7375  1.3637
 7062SOL    HW223181   4.312   0.576   6.137 -1.9988 -1.3288 -0.9995
 7063SOL     OW23182   1.615   0.405   8.511  0.7102 -0.5871 -0.7427
 7063SOL    HW123183   1.604   0.320   8.552 -0.5007 -0.2891 -0.4033
 7063SOL    HW223184   1.569   0.466   8.568  2.0965  0.4146 -0.6378
 7064SOL     OW23185   5.123   8.678   1.549  0.1710  0.2103  0.0795
 7064SOL    HW123186   5.109   8.597   1.499 -0.6649  0.5466 -0.2430
 7064SOL    HW223187   5.188   8.726   1.498 -0.5920  0.5015 -0.6441
 7065SOL     OW23188   1.986   4.794   2.928  0.0606  0.1273 -0.3552
 7065SOL    HW123189   1.984   4.838   3.013 -0.1667 -0.1200 -0.2322
 7065SOL    HW223190   1.894   4.773   2.910 -0.4128  3.1456 -2.2019
 7066SOL     OW23191   0.931   1.745   7.295 -0.0669 -0.2260 -0.5939
 7066SOL    HW123192   1.022   1.756   7.266  0.5233  0.0301  1.2330
 7066SOL    HW223193   0.885   1.820   7.257  0.5781 -0.1033 -1.1583
 7067SOL     OW23194   8.820   5.497   4.893 -0.4766  0.6566  0.2302
 7067SOL    HW123195   8.783   5.412   4.869 -0.1251  0.2094  1.1829
 7067SOL    HW223196   8.799   5.555   4.820 -3.1853  0.4784  0.7723
 7068SOL     OW23197   0.805   7.811   5.356 -0.0284  0.3677 -0.1510
 7068SOL    HW123198   0.751   7.778   5.285  0.1538  0.2898 -0.2553
 7068SOL    HW223199   0.749   7.872   5.403 -0.3035  0.0615 -0.0767
 7069SOL     OW23200   7.181   0.253   4.798 -0.3422 -0.0617 -0.5902
 7069SOL    HW123201   7.202   0.321   4.734 -2.5741  2.0003  0.6903
 7069SOL    HW223202   7.170   0.300   4.881 -2.1818 -1.9287  0.3396
 7070SOL     OW23203   5.986   2.865   8.893 -0.1608 -0.1758  0.0217
 7070SOL    HW123204   6.057   2.928   8.881  0.0461 -0.6048 -1.0649
 7070SOL    HW223205   5.928   2.907   8.957 -1.1750  2.1690 -2.2475
 7071SOL     OW23206   5.376   2.427   8.609  0.7843 -0.1038  0.5077
 7071SOL    HW123207   5.426   2.509   8.607 -0.5766  0.7399 -1.0832
 7071SOL    HW223208   5.305   2.444   8.671 -2.0992  1.6412 -2.9617
 7072SOL     OW23209   6.603   1.582   5.160 -0.2255 -0.2012 -0.1366
 7072SOL    HW123210   6.589   1.492   5.189 -0.0209  0.0061  0.6286
 7072SOL    HW223211   6.577   1.635   5.235  0.8446  0.3276 -0.1328
 7073SOL     OW23212   6.481   0.435   5.038 -0.5957  0.1794 -0.1908
 7073SOL    HW123213   6.386   0.423   5.036 -0.9939  2.4442  1.3256
 7073SOL    HW223214   6.497   0.506   4.977 -0.1990  1.3177  1.1947
 7074SOL     OW23215   0.984   4.993   1.500 -0.0861  0.2687 -0.5485
 7074SOL    HW123216   1.049   4.933   1.536 -1.2170  0.2097  1.5545
 7074SOL    HW223217   0.900   4.948   1.513 -0.7542  1.3421 -1.0093
 7075SOL     OW23218   3.822   5.607   5.905  0.6521 -0.3525  0.3073
 7075SOL    HW123219   3.875   5.609   5.984  0.3698 -1.6794  0.5575
 7075SOL    HW223220   3.739   5.566   5.932 -0.1199  0.7613 -0.2958
 7076SOL     OW23221   5.058   2.534   4.506  0.1524  0.0439  0.2553
 7076SOL    HW123222   5.094   2.452   4.472 -1.6610 -1.6153  2.0509
 7076SOL    HW223223   5.126   2.568   4.565  0.9004 -0.1650 -0.4739
 7077SOL     OW23224   3.209   5.081   4.008 -0.2518 -0.1713 -0.4570
 7077SOL    HW123225   3.275   5.133   4.055 -0.1513  0.2238 -1.0227
 7077SOL    HW223226   3.259   5.038   3.939 -0.4606 -0.4749 -0.4167
 7078SOL     OW23227   3.783   5.818   2.065  0.3406 -0.0673  0.0182
 7078SOL    HW123228   3.812   5.907   2.087  1.2260 -0.1775 -0.6038
 7078SOL    HW223229   3.764   5.777   2.149  3.3304 -0.3962  0.6576
 7079SOL     OW23230   2.012   8.294   4.253  0.4403  0.6511  0.0281
 7079SOL    HW123231   1.969   8.208   4.248  0.2935  0.6080  1.5950
 7079SOL    HW223232   2.105   8.275   4.239  0.3325  0.3370 -0.3009
 7080SOL     OW23233   7.360   7.436   7.510  0.2746 -0.7246  0.2785
 7080SOL    HW123234   7.375   7.352   7.553 -1.6376 -1.9277 -1.1876
 7080SOL    HW223235   7.285   7.473   7.557  1.1347  0.2040  0.9411
 7081SOL     OW23236   8.693   3.773   2.517 -0.2790  0.2460  0.0877
 7081SOL    HW123237   8.680   3.795   2.609 -3.6235  0.2596 -0.2432
 7081SOL    HW223238   8.690   3.858   2.472 -1.5041  0.0569 -0.2238
 7082SOL     OW23239   6.910   2.800   6.402 -0.1209  0.3332  0.3690
 7082SOL    HW123240   6.944   2.813   6.490  0.5479  0.2293  0.1323
 7082SOL    HW223241   6.817   2.817   6.410 -0.3884 -1.3636  1.4654
 7083SOL     OW23242   5.384   8.571   4.459 -0.1280  0.2888 -0.2424
 7083SOL    HW123243   5.424   8.621   4.531  0.7577  0.3094 -0.7390
 7083SOL    HW223244   5.413   8.615   4.380  2.7039 -2.3430 -0.8430
 7084SOL     OW23245   6.165   1.285   3.084  0.0676  0.1710  0.4828
 7084SOL    HW123246   6.112   1.283   3.164 -0.8301 -1.1821 -0.0936
 7084SOL    HW223247   6.107   1.323   3.019  1.1439  2.2307  0.6566
 7085SOL     OW23248   1.242   1.729   6.700 -0.3162 -0.2281  0.0763
 7085SOL    HW123249   1.193   1.657   6.739  1.7428 -1.7108  0.0860
 7085SOL    HW223250   1.259   1.700   6.610 -0.4026  0.7788 -0.2814
 7086SOL     OW23251   8.829   1.768   4.822  0.1604  0.2655  0.2206
 7086SOL    HW123252   8.818   1.738   4.732 -2.0217  0.5802  0.3126
 7086SOL    HW223253   8.921   1.755   4.841  0.4362 -0.9046 -1.6622
 7087SOL     OW23254   8.582   7.750   5.859 -0.3569 -0.1197 -0.1129
 7087SOL    HW123255   8.557   7.791   5.941 -1.7697 -2.5587  0.7860
 7087SOL    HW223256   8.666   7.709   5.876 -0.5279 -0.4063  0.0493
 7088SOL     OW23257   5.457   8.255   3.357  0.6844 -0.1032  0.5398
 7088SOL    HW123258   5.514   8.181   3.335 -0.0949 -0.6520  0.3399
 7088SOL    HW223259   5.378   8.214   3.392  0.7338  0.6698  1.6197
 7089SOL     OW23260   0.935   4.686   2.870 -0.3734 -0.1091  0.2743
 7089SOL    HW123261   1.002   4.750   2.894  0.2327 -0.9888  0.9744
 7089SOL    HW223262   0.853   4.727   2.895 -0.0410  0.6295  0.1858
 7090SOL     OW23263   5.296   4.338   2.599 -0.3419 -0.3744  0.3128
 7090SOL    HW123264   5.391   4.336   2.604 -0.1814  0.5590 -1.5052
 7090SOL    HW223265   5.267   4.313   2.686  1.5579 -0.7011  0.9006
 7091SOL     OW23266   0.325   0.448   1.160  0.0984  0.9755  0.2589
 7091SOL    HW123267   0.305   0.359   1.189  0.5310  0.4968 -0.8518
 7091SOL    HW223268   0.387   0.481   1.224 -0.6481  0.7627  1.1104
 7092SOL     OW23269   5.916   5.959   7.806 -0.0429  0.1003 -0.6897
 7092SOL    HW123270   5.879   5.951   7.894  0.0730  0.5729 -0.5968
 7092SOL    HW223271   5.989   5.897   7.805  1.6416  1.9337  0.4391
 7093SOL     OW23272   2.664   0.913   3.987  0.7249 -0.3759  0.1314
 7093SOL    HW123273   2.752   0.911   4.024  0.8492  0.3000 -0.1186
 7093SOL    HW223274   2.673   0.873   3.901  0.4095 -2.0797  0.8543
 7094SOL     OW23275   7.371   8.632   5.501  1.0449 -0.2293 -0.2073
 7094SOL    HW123276   7.309   8.582   5.448  0.6939 -0.9323  0.8361
 7094SOL    HW223277   7.401   8.702   5.444  1.1821 -1.3491 -1.5501
 7095SOL     OW23278   7.538   8.263   7.460 -0.0862 -0.1566  0.1475
 7095SOL    HW123279   7.592   8.271   7.381  0.8411  0.2367  0.8069
 7095SOL    HW223280   7.458   8.221   7.429 -0.2054  0.9786 -1.2082
 7096SOL     OW23281   8.343   1.540   8.416  0.1551 -0.4184 -0.0767
 7096SOL    HW123282   8.319   1.448   8.433  1.4196 -0.9677 -1.1134
 7096SOL    HW223283   8.362   1.576   8.503 -0.8734 -0.9704  0.4005
 7097SOL     OW23284   8.697   1.236   1.478  0.3084 -0.2928 -0.6466
 7097SOL    HW123285   8.622   1.267   1.529  1.1204 -0.4245  0.6684
 7097SOL    HW223286   8.773   1.276   1.520  0.9478  0.5523 -2.4960
 7098SOL     OW23287   6.279   3.806   7.268 -0.0291  0.3911  0.2781
 7098SOL    HW123288   6.246   3.718   7.249 -0.9392  0.4722  1.3877
 7098SOL    HW223289   6.374   3.797   7.262 -0.0765 -0.8497  1.0422
 7099SOL     OW23290   6.804   1.873   0.674  0.1578 -0.4316  0.2123
 7099SOL    HW123291   6.775   1.782   0.668 -1.9651  0.0319  2.1851
 7099SOL    HW223292   6.833   1.895   0.585 -0.9505 -2.4935 -0.7184
 7100SOL     OW23293   8.690   8.113   1.698 -0.3265  0.4298 -0.0499
 7100SOL    HW123294   8.704   8.093   1.606  2.3607  2.7016 -0.2703
 7100SOL    HW223295   8.625   8.184   1.698  1.3325  2.0106 -0.4476
 7101SOL     OW23296   0.711   0.121   7.642 -0.0972 -0.1142  0.3002
 7101SOL    HW123297   0.616   0.109   7.643 -0.3665  1.4341 -1.4602
 7101SOL    HW223298   0.741   0.068   7.568  0.3916 -0.3573  0.6668
 7102SOL     OW23299   1.437   1.528   1.643 -0.4878  0.0346 -0.3764
 7102SOL    HW123300   1.395   1.514   1.728  1.0353 -0.3509  0.3478
 7102SOL    HW223301   1.402   1.459   1.587 -1.6259  0.3906 -0.1171
 7103SOL     OW23302   6.057   6.942   6.612 -0.1554  0.1317  0.0473
 7103SOL    HW123303   6.036   7.026   6.652  1.1154  0.5184 -0.0355
 7103SOL    HW223304   5.979   6.889   6.624  0.3682 -0.0533  3.7234
 7104SOL     OW23305   2.465   6.133   7.726 -0.3497  0.0528 -0.4949
 7104SOL    HW123306   2.412   6.196   7.775 -1.7501 -1.7478  0.3953
 7104SOL    HW223307   2.402   6.084   7.673  0.9991  1.1855 -3.3551
 7105SOL     OW23308   8.278   2.753   5.741  0.3801 -0.4760  0.1172
 7105SOL    HW123309   8.335   2.780   5.669  0.7662  0.9650  0.9404
 7105SOL    HW223310   8.303   2.662   5.757  3.1683  0.3465  1.0515
 7106SOL     OW23311   0.758   7.191   8.264  0.2211  0.1145 -0.6613
 7106SOL    HW123312   0.684   7.233   8.221  1.0211  2.4250  0.0605
 7106SOL    HW223313   0.754   7.223   8.354  0.6092 -1.8408  0.1195
 7107SOL     OW23314   2.298   3.047   7.447 -0.0129  0.2245 -0.6425
 7107SOL    HW123315   2.275   3.008   7.363 -0.9921 -3.4994  1.1724
 7107SOL    HW223316   2.249   2.996   7.512  2.2064  1.6086  2.3650
 7108SOL     OW23317   1.505   0.685   3.207  0.3442  0.1207 -0.1282
 7108SOL    HW123318   1.508   0.631   3.286 -0.3875  1.3422  0.7719
 7108SOL    HW223319   1.428   0.653   3.160 -1.3633  1.6934  1.4460
 7109SOL     OW23320   1.738   1.787   3.061  0.1029  0.8179  0.0228
 7109SOL    HW123321   1.689   1.705   3.058  1.1264  0.2078 -0.8177
 7109SOL    HW223322   1.739   1.817   2.970  1.9171  0.3968 -0.1393
 7110SOL     OW23323   0.490   7.791   1.651 -0.7050  0.3233 -0.5603
 7110SOL    HW123324   0.421   7.829   1.597 -0.3546 -0.1334 -1.3576
 7110SOL    HW223325   0.529   7.865   1.696 -2.4369  0.4680  0.7896
 7111SOL     OW23326   5.253   4.645   5.707 -0.1754  0.0381  0.4762
 7111SOL    HW123327   5.302   4.567   5.731  1.1895  0.7224  0.0109
 7111SOL    HW223328   5.278   4.663   5.616 -2.2258 -0.2682 -0.2080
 7112SOL     OW23329   0.169   8.240   2.067  0.5347  0.3075 -0.3901
 7112SOL    HW123330   0.171   8.195   2.152  1.8139 -1.0421 -1.0967
 7112SOL    HW223331   0.093   8.203   2.022 -0.4675  1.4087  0.3170
 7113SOL     OW23332   1.882   6.773   6.138 -0.0435 -0.1080 -0.3278
 7113SOL    HW123333   1.865   6.848   6.194  0.7907  0.1108 -0.3492
 7113SOL    HW223334   1.957   6.800   6.084  0.8454 -1.2675  0.2779
 7114SOL     OW23335   2.623   2.873   8.235  0.2440 -0.3139 -0.1460
 7114SOL    HW123336   2.628   2.801   8.298  2.4246  0.8623  1.1620
 7114SOL    HW223337   2.680   2.941   8.272 -0.2728  1.3673 -2.2429
 7115SOL     OW23338   0.639   1.114   7.754 -0.0918  0.0896 -0.0104
 7115SOL    HW123339   0.706   1.046   7.764  0.1469  0.3015 -0.1398
 7115SOL    HW223340   0.682   1.181   7.701 -1.0737 -0.7066 -1.9241
 7116SOL     OW23341   6.435   4.092   5.193  0.6522  0.2779 -0.3066
 7116SOL    HW123342   6.371   4.021   5.193  0.3390  0.5202  1.4743
 7116SOL    HW223343   6.393   4.162   5.241  2.0515  0.6373  0.4435
 7117SOL     OW23344   7.873   5.143   1.040 -0.1251 -0.4435 -0.0923
 7117SOL    HW123345   7.924   5.062   1.037  0.3177 -0.1284 -1.8115
 7117SOL    HW223346   7.821   5.142   0.960 -0.8795  0.5008  0.3629
 7118SOL     OW23347   5.137   3.791   7.519  0.5154  0.2360  0.0324
 7118SOL    HW123348   5.089   3.715   7.484 -0.4912  1.1932 -0.7440
 7118SOL    HW223349   5.225   3.783   7.481  0.1200 -0.0035 -0.8721
 7119SOL     OW23350   2.114   2.410   3.466 -0.3584  0.0488 -0.2530
 7119SOL    HW123351   2.165   2.472   3.518  0.8995  1.2798 -2.7828
 7119SOL    HW223352   2.141   2.324   3.498  0.6624  0.7429  0.8308
 7120SOL     OW23353   3.827   7.877   6.155 -0.2495 -0.2343  0.2448
 7120SOL    HW123354   3.855   7.822   6.228  2.1338 -0.7509 -0.9699
 7120SOL    HW223355   3.821   7.965   6.193 -1.1914 -0.8329  1.5342
 7121SOL     OW23356   7.531   8.711   2.499 -0.3538 -0.4320 -0.0725
 7121SOL    HW123357   7.578   8.763   2.564  0.6351 -1.7099  0.2795
 7121SOL    HW223358   7.440   8.710   2.529 -0.4788  1.3878 -0.3056
 7122SOL     OW23359   6.161   5.995   1.847  0.0478  0.2500  0.2848
 7122SOL    HW123360   6.202   5.979   1.763 -1.4860 -1.1300 -0.2428
 7122SOL    HW223361   6.099   6.066   1.831 -1.0335 -0.7452 -0.0441
 7123SOL     OW23362   8.803   1.383   2.071 -0.2621 -1.0362  0.0857
 7123SOL    HW123363   8.795   1.477   2.087 -0.0254 -0.9559 -0.2597
 7123SOL    HW223364   8.734   1.344   2.125 -2.0254 -0.4642 -1.6200
 7124SOL     OW23365   8.200   1.627   5.025 -0.4463  0.2178 -0.0412
 7124SOL    HW123366   8.181   1.718   5.050 -0.4931  0.1487  0.1773
 7124SOL    HW223367   8.133   1.576   5.070  0.0925 -0.0044  0.5174
 7125SOL     OW23368   4.417   1.453   2.759  0.0527  0.6271 -0.0589
 7125SOL    HW123369   4.470   1.505   2.698  1.5527 -2.9553 -2.1465
 7125SOL    HW223370   4.434   1.362   2.734 -2.9091 -0.9445  2.8305
 7126SOL     OW23371   3.977   1.181   2.258  0.5247 -0.1634 -0.2599
 7126SOL    HW123372   3.917   1.133   2.200 -0.5262  1.1623 -0.3292
 7126SOL    HW223373   4.062   1.175   2.214  0.4018 -1.8012 -0.3356
 7127SOL     OW23374   1.717   5.778   3.284 -0.3731 -0.0817  0.0263
 7127SOL    HW123375   1.791   5.768   3.224 -0.8386 -2.0617 -0.2593
 7127SOL    HW223376   1.649   5.820   3.230 -0.0545  0.1635 -0.1934
 7128SOL     OW23377   6.877   6.051   4.369  0.0523  0.2232  0.0647
 7128SOL    HW123378   6.790   6.010   4.368 -0.0445  0.3773  0.9516
 7128SOL    HW223379   6.900   6.061   4.277 -1.1950  0.8451 -0.2147
 7129SOL     OW23380   1.497   3.261   5.457 -0.6217  0.2369 -0.4869
 7129SOL    HW123381   1.479   3.182   5.507  0.2591  1.0617  1.2135
 7129SOL    HW223382   1.582   3.291   5.488 -0.7976  1.6979 -1.3048
 7130SOL     OW23383   5.125   0.914   8.655  0.4568 -0.1791 -0.1006
 7130SOL    HW123384   5.063   0.982   8.679  0.2428  0.6233 -2.6568
 7130SOL    HW223385   5.086   0.833   8.688 -0.0035  0.7069  1.6753
 7131SOL     OW23386   6.361   1.157   2.377 -0.3980  0.1999  0.1876
 7131SOL    HW123387   6.333   1.212   2.450  0.9507  0.6715  0.3691
 7131SOL    HW223388   6.402   1.081   2.418  1.7113  1.1589 -0.0263
 7132SOL     OW23389   3.566   1.843   0.536 -0.1444  0.0237 -0.2437
 7132SOL    HW123390   3.633   1.784   0.570 -0.5469 -0.9304 -1.0214
 7132SOL    HW223391   3.499   1.845   0.604 -0.0100 -0.2312 -0.1024
 7133SOL     OW23392   0.296   4.346   2.933  0.0614 -0.0463  0.2482
 7133SOL    HW123393   0.310   4.262   2.888  0.3952 -0.2500  0.7253
 7133SOL    HW223394   0.227   4.328   2.996 -0.3899  0.2347 -0.1593
 7134SOL     OW23395   1.437   5.431   6.544  0.2559 -0.2564 -0.0623
 7134SOL    HW123396   1.530   5.445   6.527 -0.1453  1.4172 -1.2004
 7134SOL    HW223397   1.424   5.464   6.633  0.9658 -1.7499  0.6268
 7135SOL     OW23398   0.636   4.253   7.204  0.2401  0.6909  0.4381
 7135SOL    HW123399   0.632   4.215   7.292 -0.0642  0.4338  0.3156
 7135SOL    HW223400   0.631   4.178   7.145  1.6955  0.7526  0.1965
 7136SOL     OW23401   7.873   6.755   1.234  0.2443 -0.3127 -0.0546
 7136SOL    HW123402   7.915   6.822   1.180 -0.1158  1.2503  1.5106
 7136SOL    HW223403   7.938   6.737   1.303 -0.5170  0.0521  0.7733
 7137SOL     OW23404   6.948   2.735   3.805  0.2318  0.2350  0.2799
 7137SOL    HW123405   7.011   2.804   3.828  0.2327  0.1545  0.5273
 7137SOL    HW223406   6.872   2.783   3.771 -0.6674  0.5269  2.5135
 7138SOL     OW23407   4.995   3.197   6.453 -0.5242 -0.7909 -0.4253
 7138SOL    HW123408   5.005   3.135   6.380  1.6549 -1.9528  0.7441
 7138SOL    HW223409   5.041   3.155   6.526 -2.7592  0.2440  1.7101
 7139SOL     OW23410   0.982   1.099   1.563  0.2548 -0.0806  0.2668
 7139SOL    HW123411   0.933   1.019   1.583  0.5295 -0.1453  0.6861
 7139SOL    HW223412   0.919   1.170   1.574 -0.1474 -0.2695 -0.6453
 7140SOL     OW23413   0.136   1.856   1.898  0.4234  0.2870 -0.3196
 7140SOL    HW123414   0.212   1.860   1.956 -0.2655  0.8478  0.5682
 7140SOL    HW223415   0.103   1.767   1.907  0.2757  0.3926  0.2271
 7141SOL     OW23416   3.856   0.385   1.835 -0.2345  0.3003 -0.4612
 7141SOL    HW123417   3.833   0.425   1.919  0.6294 -1.3219  0.6004
 7141SOL    HW223418   3.778   0.397   1.781 -1.0416  0.8309  0.7746
 7142SOL     OW23419   4.974   0.190   4.155  0.1334  0.0105 -0.1387
 7142SOL    HW123420   5.046   0.206   4.095  1.9823 -1.2087  1.6241
 7142SOL    HW223421   4.918   0.127   4.109 -0.0580  1.2275 -1.6607
 7143SOL     OW23422   5.060   6.323   8.721  0.1361 -0.6710  0.4264
 7143SOL    HW123423   4.986   6.383   8.729 -0.3216 -1.1690  0.0363
 7143SOL    HW223424   5.125   6.357   8.782  0.5084  1.1410 -0.9019
 7144SOL     OW23425   0.812   7.993   5.006  0.5422  0.1612  0.4460
 7144SOL    HW123426   0.772   7.906   5.003  1.0425 -0.0741 -2.5463
 7144SOL    HW223427   0.902   7.976   5.037  0.5294 -0.3319  0.2261
 7145SOL     OW23428   3.013   6.718   8.224  0.5449 -0.0247  0.0410
 7145SOL    HW123429   2.992   6.730   8.131 -1.9521 -0.3283  0.5064
 7145SOL    HW223430   3.035   6.806   8.254 -1.4434  0.6196 -0.2472
 7146SOL     OW23431   1.585   8.742   6.354  0.5380 -0.2556 -0.4396
 7146SOL    HW123432   1.513   8.754   6.416  2.7982  1.7599  2.0446
 7146SOL    HW223433   1.565   8.801   6.282 -0.5524 -0.1481 -0.0658
 7147SOL     OW23434   1.395   2.516   1.306 -0.0138  0.2845 -0.6822
 7147SOL    HW123435   1.466   2.509   1.370  0.0276  1.0916 -0.6358
 7147SOL    HW223436   1.353   2.430   1.308 -0.1073  0.3362  0.5496
 7148SOL     OW23437   0.629   1.963   8.494  0.1685 -0.2522  0.3590
 7148SOL    HW123438   0.723   1.967   8.475  0.5566 -0.8900  1.9983
 7148SOL    HW223439   0.622   1.991   8.585 -1.1576 -0.8763  0.4644
 7149SOL     OW23440   0.598   0.812   5.458 -0.0797 -0.1005 -0.2804
 7149SOL    HW123441   0.642   0.803   5.543 -1.2995  1.4637  0.5821
 7149SOL    HW223442   0.507   0.787   5.476 -0.1836 -0.4916 -1.3124
 7150SOL     OW23443   7.497   8.317   3.167 -0.2764  0.1958 -0.1362
 7150SOL    HW123444   7.512   8.374   3.091  0.9311 -0.5820 -0.5091
 7150SOL    HW223445   7.443   8.246   3.134  1.0939 -0.6842 -0.5523
 7151SOL     OW23446   2.478   3.307   8.252  0.6235  0.3605 -0.2755
 7151SOL    HW123447   2.395   3.260   8.250  0.8190  0.0254 -0.9863
 7151SOL    HW223448   2.493   3.326   8.345  0.6269 -1.1483  0.0681
 7152SOL     OW23449   6.137   1.095   3.705 -0.6473 -0.4137  0.0689
 7152SOL    HW123450   6.106   1.014   3.744  2.1144 -2.5372 -1.7444
 7152SOL    HW223451   6.108   1.091   3.614  1.1269 -0.3811 -0.5398
 7153SOL     OW23452   3.980   6.724   2.084  0.1905  0.0324  0.3984
 7153SOL    HW123453   3.901   6.711   2.137  0.6158 -1.7646  0.6682
 7153SOL    HW223454   3.960   6.800   2.029 -1.9806 -0.7312  0.0197
 7154SOL     OW23455   1.275   2.008   7.765  0.4097 -0.7280 -0.5631
 7154SOL    HW123456   1.240   1.986   7.852  0.9670 -1.0847 -0.4256
 7154SOL    HW223457   1.277   2.104   7.764  1.9599 -0.7042  0.4724
 7155SOL     OW23458   2.459   7.500   4.218 -0.2904  0.4281  0.0047
 7155SOL    HW123459   2.500   7.508   4.133  0.6195  0.5843  0.4510
 7155SOL    HW223460   2.521   7.540   4.279  0.7209 -2.6700  1.2178
 7156SOL     OW23461   4.398   3.944   5.506  0.0373  0.9577  0.5579
 7156SOL    HW123462   4.474   3.894   5.478  0.9156  0.5919  3.3208
 7156SOL    HW223463   4.337   3.939   5.432  2.3281  0.5631 -1.4074
 7157SOL     OW23464   0.840   7.217   6.023  0.7228 -1.1404  0.0226
 7157SOL    HW123465   0.775   7.211   6.093  0.5710  1.7556  0.2662
 7157SOL    HW223466   0.790   7.203   5.943  0.3747 -1.7869  0.3467
 7158SOL     OW23467   2.182   7.561   3.541 -0.1770 -0.2683  0.0024
 7158SOL    HW123468   2.269   7.574   3.579  0.2123  1.9201 -1.4930
 7158SOL    HW223469   2.122   7.602   3.604  0.1160  0.2941 -0.0798
 7159SOL     OW23470   5.253   0.979   5.324 -0.1463  0.2294  0.4414
 7159SOL    HW123471   5.241   1.074   5.324 -0.5462  0.2180  2.4301
 7159SOL    HW223472   5.302   0.962   5.244 -3.5999  1.5796 -2.2180
 7160SOL     OW23473   1.049   1.048   4.475  0.5762  0.5153  0.0732
 7160SOL    HW123474   1.094   0.997   4.542 -1.0117  0.7439  1.3694
 7160SOL    HW223475   1.003   0.983   4.422  0.5006  0.4446  0.2257
 7161SOL     OW23476   1.412   6.797   5.436 -0.3469 -0.5719  0.3405
 7161SOL    HW123477   1.500   6.810   5.470  0.4194 -0.3679 -1.5780
 7161SOL    HW223478   1.358   6.860   5.483  1.1974  1.7601 -0.8049
 7162SOL     OW23479   1.744   1.834   7.171  0.3931 -0.5950  0.5817
 7162SOL    HW123480   1.745   1.925   7.144 -0.0636 -0.7105  0.1524
 7162SOL    HW223481   1.710   1.787   7.095  3.0479 -1.4564 -0.1909
 7163SOL     OW23482   7.603   2.263   2.161 -0.4160 -0.3443  0.4769
 7163SOL    HW123483   7.653   2.287   2.239 -0.2372  1.2662 -0.0863
 7163SOL    HW223484   7.543   2.337   2.148 -0.6074 -0.7063 -0.7816
 7164SOL     OW23485   4.516   0.264   6.325 -0.0550 -0.0115  0.8318
 7164SOL    HW123486   4.608   0.287   6.334 -0.0654 -0.1655  1.3282
 7164SOL    HW223487   4.501   0.266   6.230  0.1033  1.3815  0.8112
 7165SOL     OW23488   5.720   6.633   1.879 -0.3855  0.1029  0.5460
 7165SOL    HW123489   5.643   6.583   1.852 -0.5111  0.5503  0.0559
 7165SOL    HW223490   5.730   6.614   1.972 -0.1692 -1.1820  0.2713
 7166SOL     OW23491   8.162   7.226   8.729  0.6429 -0.2651  0.3089
 7166SOL    HW123492   8.206   7.310   8.735  1.4224 -0.7761  3.4450
 7166SOL    HW223493   8.205   7.181   8.656  1.4635  1.3402 -0.2263
 7167SOL     OW23494   0.801   2.973   5.633  0.1461 -0.0062  0.3216
 7167SOL    HW123495   0.862   2.991   5.704  1.0613 -0.9023 -0.2099
 7167SOL    HW223496   0.804   3.052   5.578  0.2860  0.2333  0.6689
 7168SOL     OW23497   1.373   5.134   0.898 -0.3614  0.1765 -0.1302
 7168SOL    HW123498   1.350   5.041   0.895 -2.7427  0.6710  1.1485
 7168SOL    HW223499   1.344   5.168   0.814  1.8712 -0.4350 -1.2407
 7169SOL     OW23500   7.334   5.792   6.320  0.1449 -0.1376  0.4243
 7169SOL    HW123501   7.414   5.741   6.326 -1.2712 -2.5163  0.6320
 7169SOL    HW223502   7.343   5.843   6.239  1.8604 -0.3113  0.4842
 7170SOL     OW23503   8.787   3.400   8.640  0.4853 -0.1889  0.8728
 7170SOL    HW123504   8.876   3.428   8.661  0.6497  1.3426 -1.4560
 7170SOL    HW223505   8.799   3.330   8.575  0.1309  2.0466 -1.8120
 7171SOL     OW23506   7.841   6.733   3.518  0.1443  0.2827  0.0883
 7171SOL    HW123507   7.900   6.760   3.588 -0.8412  2.2224  0.2272
 7171SOL    HW223508   7.753   6.751   3.552 -0.3787  0.6954 -1.3982
 7172SOL     OW23509   6.814   3.538   7.543  0.4478  0.5830  0.3660
 7172SOL    HW123510   6.763   3.527   7.623  0.2943  0.7247  0.2875
 7172SOL    HW223511   6.756   3.507   7.473  0.2484  1.2832  0.2127
 7173SOL     OW23512   0.693   3.798   3.152 -0.0507 -0.3702 -0.0787
 7173SOL    HW123513   0.643   3.734   3.102 -1.9806  0.0396  1.2280
 7173SOL    HW223514   0.685   3.770   3.243  0.4177  0.8313  0.3587
 7174SOL     OW23515   8.729   7.182   2.903 -0.5476  0.1200 -0.1888
 7174SOL    HW123516   8.819   7.200   2.876 -0.5881  0.2905 -0.2085
 7174SOL    HW223517   8.678   7.186   2.823 -0.8380  1.6853  0.0470
 7175SOL     OW23518   4.705   1.990   6.657  0.4195 -0.4546 -0.1656
 7175SOL    HW123519   4.720   1.947   6.741  1.3539 -0.4106 -0.2922
 7175SOL    HW223520   4.751   1.934   6.594 -0.2565 -0.4788 -0.6425
 7176SOL     OW23521   0.174   2.069   5.248 -0.1208 -0.6764  0.1413
 7176SOL    HW123522   0.117   2.145   5.262 -1.9340 -2.2669  2.1067
 7176SOL    HW223523   0.157   2.043   5.157 -0.5924  0.3517 -0.0891
 7177SOL     OW23524   7.723   2.087   0.884  0.0260  0.3905  0.3754
 7177SOL    HW123525   7.801   2.094   0.939 -0.7429 -0.2910  1.6194
 7177SOL    HW223526   7.679   2.171   0.893 -0.0001  0.3475  0.6675
 7178SOL     OW23527   3.992   1.912   1.014  0.7030 -0.6770  0.0561
 7178SOL    HW123528   4.037   1.957   1.085 -0.5820  0.0516  0.4460
 7178SOL    HW223529   3.906   1.891   1.049 -0.4840  0.9519 -1.7076
 7179SOL     OW23530   1.780   1.732   2.647 -0.5118  0.2507  0.0253
 7179SOL    HW123531   1.783   1.790   2.571 -1.2368  0.0331 -0.1865
 7179SOL    HW223532   1.774   1.791   2.723  0.5204  0.4741 -0.0579
 7180SOL     OW23533   0.878   0.275   4.338  0.1320  0.3561  0.5282
 7180SOL    HW123534   0.888   0.189   4.378  0.2448 -0.1036 -0.4632
 7180SOL    HW223535   0.941   0.276   4.266  0.9559  1.7051  1.2225
 7181SOL     OW23536   7.305   7.301   7.037 -0.2478 -0.3069  0.6049
 7181SOL    HW123537   7.223   7.280   6.993 -0.7376  0.6535  1.0281
 7181SOL    HW223538   7.327   7.389   7.007  0.1453 -0.1969  1.1886
 7182SOL     OW23539   7.579   7.068   5.092 -0.6854  0.6744 -0.3111
 7182SOL    HW123540   7.639   7.050   5.019 -0.3767 -0.6448  0.2538
 7182SOL    HW223541   7.636   7.102   5.161 -0.4061 -1.4738  0.5600
 7183SOL     OW23542   1.932   5.963   0.988  0.6018  0.1649 -0.2810
 7183SOL    HW123543   1.856   6.002   0.944  0.8392  2.5742  1.3169
 7183SOL    HW223544   1.909   5.870   0.996 -1.4166  0.5153 -1.3555
 7184SOL     OW23545   2.384   1.317   6.126 -0.5767  0.0180  0.2043
 7184SOL    HW123546   2.474   1.349   6.127  0.0361 -1.6291  0.7016
 7184SOL    HW223547   2.330   1.396   6.116  0.8798  1.0988  0.6479
 7185SOL     OW23548   7.275   2.519   2.985  0.4217  0.7101 -0.1342
 7185SOL    HW123549   7.286   2.559   2.898  1.4580  1.9205  0.5208
 7185SOL    HW223550   7.274   2.594   3.045 -2.5686  0.0905  0.7566
 7186SOL     OW23551   0.754   1.102   3.886  0.0911  0.4062  0.1782
 7186SOL    HW123552   0.706   1.184   3.883  1.6718  1.3614 -1.6546
 7186SOL    HW223553   0.726   1.060   3.967 -1.3741  2.3551  0.7522
 7187SOL     OW23554   5.078   3.482   5.255  0.2769 -0.3637 -0.3532
 7187SOL    HW123555   4.999   3.475   5.309  1.9619 -2.7821  2.0714
 7187SOL    HW223556   5.055   3.441   5.172 -0.8624 -1.6048  0.5385
 7188SOL     OW23557   6.081   8.061   5.543  0.0730  0.3558 -0.1635
 7188SOL    HW123558   6.098   8.107   5.461 -0.0979 -0.2189 -0.5252
 7188SOL    HW223559   6.064   7.971   5.517  1.4345 -0.1550  0.6197
 7189SOL     OW23560   0.480   1.617   1.615  0.4494 -0.1379 -0.6300
 7189SOL    HW123561   0.409   1.632   1.678  0.1390 -1.0990 -0.7430
 7189SOL    HW223562   0.457   1.536   1.571  2.2245 -1.1538  0.1758
 7190SOL     OW23563   6.732   8.870   0.544 -0.3465  0.1062 -0.0303
 7190SOL    HW123564   6.799   8.823   0.495  0.8408  0.2658  1.3652
 7190SOL    HW223565   6.780   8.941   0.588 -1.5800  0.7538  0.3144
 7191SOL     OW23566   3.026   7.057   6.534 -0.6372 -0.0236  0.3028
 7191SOL    HW123567   2.944   7.009   6.521 -1.2911  1.1127  0.1106
 7191SOL    HW223568   3.002   7.131   6.590  0.2011  0.4428  0.0617
 7192SOL     OW23569   0.341   3.966   0.964 -0.0465  0.5309 -0.2890
 7192SOL    HW123570   0.286   4.007   1.031 -0.2886 -0.3682  0.0814
 7192SOL    HW223571   0.424   3.949   1.008 -0.5117 -0.9044  0.0885
 7193SOL     OW23572   0.417   8.346   7.354  0.2387 -0.0239 -0.0763
 7193SOL    HW123573   0.482   8.388   7.410 -0.5013  0.8566  0.1653
 7193SOL    HW223574   0.418   8.398   7.273 -2.0030  1.7875  0.9063
 7194SOL     OW23575   8.576   3.141   0.407 -0.1691 -0.1950 -0.1285
 7194SOL    HW123576   8.632   3.123   0.483  0.3223 -1.8008 -0.8076
 7194SOL    HW223577   8.528   3.059   0.394 -2.0514  0.8482 -0.1224
 7195SOL     OW23578   4.496   8.489   5.129 -0.4358  0.5677 -0.1240
 7195SOL    HW123579   4.476   8.409   5.080  2.0757  0.2648 -0.7791
 7195SOL    HW223580   4.410   8.522   5.156 -1.6344 -1.5877 -1.0155
 7196SOL     OW23581   1.249   6.074   3.828 -0.7013  0.0983  0.0248
 7196SOL    HW123582   1.232   6.068   3.734 -1.7157  0.3552  0.1828
 7196SOL    HW223583   1.282   5.988   3.852 -0.7170 -0.0600 -0.5034
 7197SOL     OW23584   3.781   6.590   3.267 -0.7372  0.1014  0.1426
 7197SOL    HW123585   3.843   6.662   3.264 -0.1649 -0.3250  1.2780
 7197SOL    HW223586   3.767   6.573   3.360 -1.5911 -0.6368 -0.0984
 7198SOL     OW23587   0.311   1.786   3.554 -0.2086  0.2339  0.2773
 7198SOL    HW123588   0.322   1.708   3.607 -0.9806 -0.3742 -0.4210
 7198SOL    HW223589   0.222   1.816   3.573  0.0307  0.8642  0.4357
 7199SOL     OW23590   3.303   6.387   6.769  0.4348 -0.7272  0.4456
 7199SOL    HW123591   3.333   6.296   6.776  0.6255 -0.7814 -0.7994
 7199SOL    HW223592   3.208   6.382   6.771  0.4518 -0.8964  0.9310
 7200SOL     OW23593   4.413   6.710   4.726  0.3225  0.9351 -0.1564
 7200SOL    HW123594   4.455   6.759   4.797  0.9455  2.0262 -1.2447
 7200SOL    HW223595   4.452   6.623   4.731  1.8929  1.5941 -0.4135
 7201SOL     OW23596   2.791   2.852   5.053  0.5784  0.2087  0.1850
 7201SOL    HW123597   2.737   2.792   5.104  0.2861  0.6755  0.4307
 7201SOL    HW223598   2.811   2.804   4.972 -0.0774 -0.0239  0.1533
 7202SOL     OW23599   8.624   2.908   3.224  0.6255  0.6479 -0.3094
 7202SOL    HW123600   8.556   2.901   3.291 -0.1383 -1.0477 -1.2139
 7202SOL    HW223601   8.605   2.837   3.162  1.7697  1.6681 -1.9110
 7203SOL     OW23602   8.846   6.455   1.407  0.4955  0.1513 -0.4671
 7203SOL    HW123603   8.821   6.543   1.437  1.9981 -0.1327  1.8640
 7203SOL    HW223604   8.898   6.471   1.328 -1.2410  1.1503 -1.4818
 7204SOL     OW23605   7.962   1.282   2.233  0.0040  0.4482 -0.4179
 7204SOL    HW123606   8.011   1.360   2.258 -2.0999  1.1561  1.8373
 7204SOL    HW223607   8.002   1.212   2.285  0.5161  0.4320 -0.8272
 7205SOL     OW23608   3.702   8.381   6.293 -0.0860  0.2110  0.6923
 7205SOL    HW123609   3.626   8.400   6.348 -0.9762  1.5552 -0.9063
 7205SOL    HW223610   3.716   8.461   6.244  0.2890 -1.0986 -1.4661
 7206SOL     OW23611   7.876   3.185   7.546 -0.5808  0.3880  0.1064
 7206SOL    HW123612   7.848   3.093   7.539  1.2142 -0.2360  0.4585
 7206SOL    HW223613   7.954   3.190   7.491 -1.5388  2.1359 -1.1623
 7207SOL     OW23614   2.560   0.301   1.441  0.4378 -0.5652 -0.1762
 7207SOL    HW123615   2.475   0.345   1.434  0.1218 -1.2914 -1.0758
 7207SOL    HW223616   2.606   0.323   1.360  2.4106  2.3478  1.5479
 7208SOL     OW23617   8.009   7.010   2.469 -0.1766  0.1874  0.0597
 7208SOL    HW123618   8.079   6.945   2.461 -0.1149  0.0857  1.3297
 7208SOL    HW223619   7.938   6.976   2.413 -0.0831 -0.8951  0.5797
 7209SOL     OW23620   4.277   1.305   0.987 -1.3966 -0.6156 -0.5202
 7209SOL    HW123621   4.278   1.399   1.004 -0.0517 -0.7827  0.4795
 7209SOL    HW223622   4.212   1.294   0.918 -1.3452  1.0789 -0.8761
 7210SOL     OW23623   6.978   2.485   2.070 -0.6378  0.0528  0.3976
 7210SOL    HW123624   7.058   2.529   2.039 -0.6496 -0.3043 -0.1414
 7210SOL    HW223625   6.907   2.535   2.030 -0.6405 -1.3441 -1.5092
 7211SOL     OW23626   8.359   8.704   7.839 -0.3416  0.0942 -0.3372
 7211SOL    HW123627   8.344   8.623   7.790  0.5136  1.1568 -2.4823
 7211SOL    HW223628   8.388   8.675   7.925 -2.4612 -1.8711 -0.2115
 7212SOL     OW23629   3.329   0.643   1.614  0.3004  0.6291 -0.3503
 7212SOL    HW123630   3.307   0.657   1.706  1.9884  0.7666  0.0774
 7212SOL    HW223631   3.336   0.731   1.577  0.6431  0.6051 -0.3442
 7213SOL     OW23632   3.313   4.001   0.116 -0.4558  0.3253 -0.3681
 7213SOL    HW123633   3.282   3.935   0.054 -3.0562  0.4071  0.7186
 7213SOL    HW223634   3.370   3.953   0.177 -1.9974 -0.8833  0.1742
 7214SOL     OW23635   4.049   5.354   1.943  0.7925  0.7142 -0.0522
 7214SOL    HW123636   4.132   5.384   1.980  0.7311  1.7544 -0.7082
 7214SOL    HW223637   3.983   5.392   2.000  0.7606 -1.2698  1.3060
 7215SOL     OW23638   0.193   3.255   7.666 -0.0198 -0.4917  0.0664
 7215SOL    HW123639   0.207   3.162   7.648  0.6026 -0.3242 -0.3431
 7215SOL    HW223640   0.251   3.274   7.740 -0.0164 -0.3872  0.0371
 7216SOL     OW23641   0.817   2.119   4.911  0.2448  0.5199 -0.1988
 7216SOL    HW123642   0.877   2.193   4.904  1.8078 -0.8060 -1.7887
 7216SOL    HW223643   0.851   2.067   4.985  1.5894 -0.6050 -1.5436
 7217SOL     OW23644   1.554   5.554   7.885 -0.0712 -0.2937 -0.0280
 7217SOL    HW123645   1.474   5.605   7.875  0.5415  0.7477  0.2594
 7217SOL    HW223646   1.547   5.484   7.820 -1.2380 -0.2609  0.0442
 7218SOL     OW23647   0.685   0.967   8.364 -0.2375 -0.3958 -0.0928
 7218SOL    HW123648   0.623   1.041   8.367  0.9467  0.6147  0.1623
 7218SOL    HW223649   0.631   0.890   8.383 -1.1235  0.6524  2.0651
 7219SOL     OW23650   0.909   7.944   7.697  0.6277 -0.0773 -0.2448
 7219SOL    HW123651   0.975   7.993   7.746  0.0278  0.5125 -0.0013
 7219SOL    HW223652   0.836   7.934   7.759  0.1545  0.0240 -0.7738
 7220SOL     OW23653   2.894   1.758   7.245  0.0870  0.0697  0.2000
 7220SOL    HW123654   2.866   1.678   7.201  0.2446  0.2964 -0.3195
 7220SOL    HW223655   2.963   1.794   7.189 -1.4053  1.6738 -0.7124
 7221SOL     OW23656   6.493   4.092   8.280  0.4501  0.0245 -0.3065
 7221SOL    HW123657   6.554   4.166   8.282  0.9589 -0.3193 -1.8145
 7221SOL    HW223658   6.490   4.062   8.371  0.8734  1.3694  0.1839
 7222SOL     OW23659   1.579   1.891   7.823 -0.3784  0.1906  0.2412
 7222SOL    HW123660   1.561   1.897   7.729  0.7647 -1.7999 -0.1728
 7222SOL    HW223661   1.674   1.897   7.831 -0.4873  0.8035  1.3331
 7223SOL     OW23662   4.339   8.356   6.873 -0.2687 -0.1565 -0.4064
 7223SOL    HW123663   4.415   8.325   6.921  0.3522  2.1693  0.2292
 7223SOL    HW223664   4.375   8.398   6.794 -0.9672 -0.0430 -0.6806
 7224SOL     OW23665   7.181   4.939   6.328  0.0554 -0.3118 -0.2134
 7224SOL    HW123666   7.089   4.963   6.341  0.3490  0.3837  0.7738
 7224SOL    HW223667   7.229   4.999   6.385  1.0951 -0.9489 -0.3911
 7225SOL     OW23668   4.541   1.637   2.597  0.1805 -0.5345 -0.0959
 7225SOL    HW123669   4.625   1.682   2.605 -1.1787  1.8210  3.3131
 7225SOL    HW223670   4.541   1.601   2.509  4.8366 -0.9268 -0.1710
 7226SOL     OW23671   0.954   1.307   0.040  0.0719 -0.0829  0.3280
 7226SOL    HW123672   0.982   1.314  -0.051  2.2711 -1.6876  0.8132
 7226SOL    HW223673   0.919   1.218   0.048 -2.2438  0.7662  0.5770
 7227SOL     OW23674   6.148   4.652   6.114  0.3355 -0.0679  0.3709
 7227SOL    HW123675   6.242   4.657   6.092 -0.3921 -0.6346 -3.7888
 7227SOL    HW223676   6.133   4.561   6.138  0.6273 -0.3361 -0.4355
 7228SOL     OW23677   7.967   0.242   2.472 -0.2209 -0.1996  0.9413
 7228SOL    HW123678   8.022   0.318   2.493 -0.5854 -0.1161  1.6212
 7228SOL    HW223679   7.884   0.260   2.515 -0.4084 -0.8477  0.8579
 7229SOL     OW23680   2.905   5.532   7.760 -0.2275  0.4289 -0.3764
 7229SOL    HW123681   2.897   5.491   7.673  2.9223  0.6530 -0.9223
 7229SOL    HW223682   2.971   5.601   7.747  1.1163 -0.2017  2.3755
 7230SOL     OW23683   3.046   0.520   1.378 -0.1145 -0.2260  0.1882
 7230SOL    HW123684   3.115   0.464   1.416  0.7222  1.4204  1.2268
 7230SOL    HW223685   3.011   0.568   1.453 -1.3068  0.1221 -0.5777
 7231SOL     OW23686   6.676   5.145   7.794  0.0668 -0.3345  0.2566
 7231SOL    HW123687   6.685   5.212   7.727  0.1087  0.6674  1.2309
 7231SOL    HW223688   6.698   5.063   7.750 -0.2509  0.2539 -1.0273
 7232SOL     OW23689   0.476   8.501   6.327 -0.2375  0.0059  0.0974
 7232SOL    HW123690   0.556   8.553   6.326  1.0019 -1.8231  1.0876
 7232SOL    HW223691   0.427   8.532   6.250  1.3849  1.1498 -0.5240
 7233SOL     OW23692   2.323   1.203   5.305  0.5779  0.5328  0.1672
 7233SOL    HW123693   2.372   1.176   5.227  0.3206 -0.9317  0.4798
 7233SOL    HW223694   2.233   1.177   5.287  0.4669  0.4326  0.8457
 7234SOL     OW23695   1.251   7.426   5.187  0.5606  0.2350  0.1307
 7234SOL    HW123696   1.173   7.481   5.202  0.4827  0.0143  0.5442
 7234SOL    HW223697   1.218   7.350   5.140  0.6978  0.6224 -0.6013
 7235SOL     OW23698   3.541   6.153   0.660 -0.3373  0.4521  0.3191
 7235SOL    HW123699   3.533   6.148   0.565 -0.3822 -0.8772  0.3752
 7235SOL    HW223700   3.625   6.196   0.675  1.1780 -2.0309 -0.3811
 7236SOL     OW23701   0.407   3.916   5.001  0.0962  0.6609 -0.9736
 7236SOL    HW123702   0.434   3.837   4.954  0.6566  0.3106 -0.0941
 7236SOL    HW223703   0.316   3.900   5.024  0.0528  0.4960 -1.2521
 7237SOL     OW23704   8.592   0.788   0.266 -0.1259  0.3351 -0.4047
 7237SOL    HW123705   8.589   0.838   0.347  0.3893  0.4710 -0.4599
 7237SOL    HW223706   8.685   0.769   0.254 -0.3273 -0.7319 -0.3330
 7238SOL     OW23707   8.579   6.531   4.457  0.4305  0.4333 -0.3357
 7238SOL    HW123708   8.512   6.463   4.466  1.8830 -1.1993 -1.1309
 7238SOL    HW223709   8.544   6.606   4.503 -1.6076 -0.6067 -0.0866
 7239SOL     OW23710   1.503   7.574   3.899  0.5609 -0.3437  1.1854
 7239SOL    HW123711   1.432   7.531   3.851 -0.0743  1.7614  0.1114
 7239SOL    HW223712   1.583   7.544   3.855  0.0975 -0.0112  0.0584
 7240SOL     OW23713   5.075   6.034   1.855  0.0680 -0.1258 -0.0556
 7240SOL    HW123714   5.044   6.109   1.804 -1.4556  1.2239  2.6249
 7240SOL    HW223715   5.145   6.069   1.910  0.1669 -0.9569  0.3681
 7241SOL     OW23716   0.657   2.538   1.211 -0.6327  0.1795  0.5998
 7241SOL    HW123717   0.568   2.516   1.240 -0.2247 -2.9055 -0.1606
 7241SOL    HW223718   0.663   2.501   1.123  0.9042  1.8523 -0.0672
 7242SOL     OW23719   0.826   3.818   6.517 -0.1156 -0.1915  0.4090
 7242SOL    HW123720   0.812   3.744   6.576  0.9770 -0.9938 -0.2947
 7242SOL    HW223721   0.744   3.868   6.521 -0.2048 -0.4406  2.2675
 7243SOL     OW23722   2.691   7.991   8.103 -0.5270 -0.1491 -0.0266
 7243SOL    HW123723   2.681   7.957   8.014 -0.8061 -0.2792  0.0556
 7243SOL    HW223724   2.628   8.063   8.108  0.4622  0.7690 -0.3929
 7244SOL     OW23725   0.588   7.106   2.563  0.6115  0.0222 -0.0125
 7244SOL    HW123726   0.571   7.085   2.471 -0.0902 -0.7318  0.2770
 7244SOL    HW223727   0.556   7.196   2.573 -0.8092 -0.4452 -0.1354
 7245SOL     OW23728   6.436   7.484   5.956  0.0800  0.2916 -0.0490
 7245SOL    HW123729   6.436   7.388   5.960 -0.9001  0.2085 -1.1518
 7245SOL    HW223730   6.480   7.505   5.874  1.5335  0.8779  0.8375
 7246SOL     OW23731   1.514   6.471   0.284  0.7796  0.2290 -0.5163
 7246SOL    HW123732   1.560   6.419   0.218  2.0712 -0.8028  1.1236
 7246SOL    HW223733   1.492   6.408   0.353  0.7863  1.5307  0.7169
 7247SOL     OW23734   7.433   2.152   2.539 -0.1673 -0.0621 -0.2714
 7247SOL    HW123735   7.438   2.153   2.443  1.6588 -0.3592 -0.2146
 7247SOL    HW223736   7.494   2.084   2.565 -0.0441  0.5703  1.1448
 7248SOL     OW23737   1.411   7.667   0.243  0.5380  0.0444  0.2762
 7248SOL    HW123738   1.400   7.574   0.264  0.1278  0.2497  1.0186
 7248SOL    HW223739   1.497   7.671   0.200  1.5581 -0.4032  2.1330
 7249SOL     OW23740   4.688   0.212   7.757  0.1034 -0.1828 -0.1953
 7249SOL    HW123741   4.734   0.149   7.700  0.0564  0.3769 -0.8729
 7249SOL    HW223742   4.595   0.193   7.743  0.0533  0.6782 -1.1885
 7250SOL     OW23743   4.232   4.277   4.254  0.3909 -0.6716 -0.3207
 7250SOL    HW123744   4.162   4.325   4.299  0.9884  1.1414 -1.2384
 7250SOL    HW223745   4.308   4.288   4.311  0.7546  0.2966 -0.9635
 7251SOL     OW23746   0.871   3.721   2.783  0.0251 -0.0536  0.0187
 7251SOL    HW123747   0.925   3.783   2.833 -0.4191  0.0850  0.3327
 7251SOL    HW223748   0.910   3.720   2.696 -0.0371  0.7658 -0.0272
 7252SOL     OW23749   3.524   0.196   0.935  0.1406  0.3361  0.3305
 7252SOL    HW123750   3.442   0.219   0.978 -0.5458 -0.4252 -0.5249
 7252SOL    HW223751   3.584   0.176   1.007 -0.3076  1.2479  0.9733
 7253SOL     OW23752   5.034   3.011   8.315 -0.1372  0.0522 -0.0043
 7253SOL    HW123753   5.110   3.033   8.260 -0.5901  0.0026 -0.6629
 7253SOL    HW223754   4.973   3.083   8.301 -0.1294  0.2001  0.6935
 7254SOL     OW23755   0.928   1.310   2.149 -0.3806  0.1559 -0.0845
 7254SOL    HW123756   0.929   1.400   2.116 -1.3679 -0.0176 -0.6605
 7254SOL    HW223757   0.991   1.309   2.221  1.2761  0.7625 -1.4612
 7255SOL     OW23758   3.976   7.370   5.210 -0.0704 -0.4624 -0.3712
 7255SOL    HW123759   3.890   7.412   5.211  0.1126  0.2426  3.5956
 7255SOL    HW223760   3.958   7.280   5.238  0.4907  0.0765  1.9537
 7256SOL     OW23761   2.715   8.070   2.846 -0.3635 -0.5077 -0.1326
 7256SOL    HW123762   2.628   8.106   2.864 -0.3813 -0.0351 -1.0937
 7256SOL    HW223763   2.719   7.991   2.900 -0.6813  0.4093  1.2929
 7257SOL     OW23764   1.722   3.973   4.060  0.2027 -0.2908 -0.1683
 7257SOL    HW123765   1.657   3.952   4.127 -0.0508 -0.3458 -0.4285
 7257SOL    HW223766   1.745   3.888   4.022  1.5804 -0.4525  0.9682
 7258SOL     OW23767   0.455   0.578   1.332 -0.2111 -0.2511 -0.3551
 7258SOL    HW123768   0.429   0.669   1.342 -2.1647 -0.8127  0.0290
 7258SOL    HW223769   0.540   0.582   1.287 -0.3800  1.7249 -0.5749
 7259SOL     OW23770   4.003   1.995   0.275 -0.1506  0.1198  0.0838
 7259SOL    HW123771   4.084   1.956   0.242 -0.5832 -0.8057  0.0960
 7259SOL    HW223772   3.956   2.020   0.196  0.2764  0.9536  0.0816
 7260SOL     OW23773   7.673   3.182   3.787 -0.2480 -0.4387 -0.0889
 7260SOL    HW123774   7.765   3.200   3.772 -0.8266  2.5443 -0.7987
 7260SOL    HW223775   7.642   3.256   3.839 -1.5707 -3.1513  3.3800
 7261SOL     OW23776   8.668   6.986   2.620  0.4756 -0.0252  0.0019
 7261SOL    HW123777   8.698   6.926   2.689  0.9680 -0.4018 -0.5301
 7261SOL    HW223778   8.747   7.005   2.569  0.5789  1.9862  0.8082
 7262SOL     OW23779   0.225   3.929   5.556 -0.2343 -0.0168 -0.1291
 7262SOL    HW123780   0.205   3.886   5.473 -0.6120 -0.5679  0.2411
 7262SOL    HW223781   0.182   4.015   5.550 -2.7312 -1.1250  0.5974
 7263SOL     OW23782   2.699   3.411   8.853 -0.2086 -0.2788 -0.0800
 7263SOL    HW123783   2.777   3.435   8.803  1.7507 -0.1481  2.7867
 7263SOL    HW223784   2.730   3.343   8.913 -1.9269  0.7201  2.0542
 7264SOL     OW23785   3.778   3.919   4.549 -0.3753 -0.1246  0.2772
 7264SOL    HW123786   3.810   3.866   4.622  0.6619  1.6134  1.1330
 7264SOL    HW223787   3.768   4.007   4.585  0.4733  0.8659 -1.7498
 7265SOL     OW23788   8.237   6.569   8.126 -0.1997 -0.1967 -0.2163
 7265SOL    HW123789   8.319   6.553   8.078 -0.8263 -0.3974 -1.2468
 7265SOL    HW223790   8.265   6.614   8.206  0.9862 -0.8907 -0.2121
 7266SOL     OW23791   0.365   7.658   7.138 -0.3870 -0.7637  0.2725
 7266SOL    HW123792   0.440   7.675   7.080 -0.9613 -1.0755 -0.5744
 7266SOL    HW223793   0.395   7.589   7.196  1.5120  1.9837  2.8577
 7267SOL     OW23794   8.609   1.517   0.512  0.0577 -0.0014  0.0809
 7267SOL    HW123795   8.573   1.490   0.428  1.2964 -0.4949 -0.3185
 7267SOL    HW223796   8.685   1.460   0.525 -0.8706 -0.8822  2.1833
 7268SOL     OW23797   5.432   8.094   0.912  0.1430 -0.1989 -0.6657
 7268SOL    HW123798   5.367   8.066   0.977  1.6164 -1.5514  0.2863
 7268SOL    HW223799   5.393   8.068   0.828 -0.0902 -2.0057 -0.0375
 7269SOL     OW23800   4.016   4.254   5.465  0.1335  0.0607  0.0768
 7269SOL    HW123801   3.951   4.202   5.417  0.7425 -0.2133 -0.4582
 7269SOL    HW223802   3.975   4.340   5.473 -0.7065 -0.3650  0.6010
 7270SOL     OW23803   7.264   2.272   6.944  0.3143  0.3061 -0.4551
 7270SOL    HW123804   7.319   2.216   6.889 -0.8757 -0.0479 -1.3215
 7270SOL    HW223805   7.322   2.301   7.014  0.8318 -2.4856  0.3874
 7271SOL     OW23806   5.004   4.579   2.595  0.6778  0.2850 -0.1298
 7271SOL    HW123807   4.968   4.625   2.671  0.0360  1.3614 -1.0523
 7271SOL    HW223808   5.097   4.599   2.596  0.6283  0.5114  0.2284
 7272SOL     OW23809   4.693   6.077   0.267 -0.1764  0.4708  0.2699
 7272SOL    HW123810   4.739   6.014   0.211 -1.8467 -1.0169  0.4867
 7272SOL    HW223811   4.694   6.159   0.217 -1.2917 -0.7153 -1.8372
 7273SOL     OW23812   8.109   4.642   1.477 -0.0141 -0.0268 -0.1282
 7273SOL    HW123813   8.039   4.700   1.505  1.5370  1.2492  1.3281
 7273SOL    HW223814   8.077   4.554   1.497 -2.1137  0.3084 -1.7075
 7274SOL     OW23815   4.218   5.619   3.994  0.0983  0.0750  0.5896
 7274SOL    HW123816   4.179   5.582   4.073  1.2254 -1.5796  0.4320
 7274SOL    HW223817   4.200   5.554   3.926 -0.2633  1.1523 -0.3884
 7275SOL     OW23818   6.902   1.065   6.985 -0.5692  0.0920 -0.0263
 7275SOL    HW123819   6.977   1.060   6.925  0.0171  2.0835  0.4676
 7275SOL    HW223820   6.895   0.977   7.022  0.5750 -0.5273 -1.2011
 7276SOL     OW23821   1.327   7.368   3.298 -0.0066  0.0879 -0.2930
 7276SOL    HW123822   1.333   7.462   3.282 -1.5895  0.0713 -1.2137
 7276SOL    HW223823   1.254   7.358   3.359 -1.6665 -0.6561 -2.2481
 7277SOL     OW23824   2.804   3.700   8.618 -0.4229 -0.3461 -0.0252
 7277SOL    HW123825   2.822   3.624   8.563  3.4467 -1.8070  2.7929
 7277SOL    HW223826   2.825   3.775   8.562 -0.3341 -1.5189 -1.6456
 7278SOL     OW23827   3.075   7.938   8.282  0.1130  0.4317  0.2810
 7278SOL    HW123828   2.987   7.935   8.320  0.8267 -0.5083  1.9325
 7278SOL    HW223829   3.072   7.876   8.209  0.3192 -2.2599  2.4438
 7279SOL     OW23830   8.854   6.086   2.218 -0.3750 -0.2720 -0.2638
 7279SOL    HW123831   8.872   6.170   2.176 -1.9804 -0.0528 -0.5539
 7279SOL    HW223832   8.759   6.085   2.232 -0.0872 -0.8830  2.2235
 7280SOL     OW23833   3.885   2.641   8.798  0.1230  0.0229 -0.2689
 7280SOL    HW123834   3.967   2.623   8.752 -1.1543 -1.1387 -2.2409
 7280SOL    HW223835   3.871   2.564   8.853 -0.9253 -1.1192 -2.0119
 7281SOL     OW23836   2.933   4.533   4.844  0.2916 -0.2488 -0.1959
 7281SOL    HW123837   2.954   4.586   4.768 -0.1569  0.5597  0.2315
 7281SOL    HW223838   3.018   4.506   4.879  0.5572  0.7009 -0.0702
 7282SOL     OW23839   8.113   0.643   6.565 -0.3733 -0.3312  0.4543
 7282SOL    HW123840   8.072   0.609   6.644 -0.1829  0.0425  0.7171
 7282SOL    HW223841   8.151   0.727   6.592  1.6964 -1.2340  0.5457
 7283SOL     OW23842   8.666   2.100   7.831  0.0361 -0.2780 -0.4851
 7283SOL    HW123843   8.581   2.066   7.802 -0.8200  1.7765 -0.6125
 7283SOL    HW223844   8.724   2.088   7.756  0.6209 -3.8581  0.3728
 7284SOL     OW23845   5.131   7.446   1.963  0.4865  0.0508 -0.0772
 7284SOL    HW123846   5.218   7.442   1.922  0.2499 -1.7349 -0.4899
 7284SOL    HW223847   5.074   7.479   1.894  0.9081  1.8691  0.3923
 7285SOL     OW23848   6.640   7.553   8.213 -0.0966  0.1901 -0.0709
 7285SOL    HW123849   6.558   7.506   8.231  0.7687 -1.2470  0.2434
 7285SOL    HW223850   6.669   7.519   8.128  0.1837  0.7005 -0.1871
 7286SOL     OW23851   7.893   7.776   6.901 -0.2090 -0.2255  0.3860
 7286SOL    HW123852   7.868   7.809   6.987 -1.3974  1.3145 -0.4992
 7286SOL    HW223853   7.947   7.699   6.919 -0.3193  0.1460  2.4907
 7287SOL     OW23854   5.693   7.338   0.715 -0.5809 -0.1440  0.6219
 7287SOL    HW123855   5.696   7.431   0.738 -1.2276  0.0179  0.0710
 7287SOL    HW223856   5.647   7.297   0.788  2.4059 -0.5522  2.4323
 7288SOL     OW23857   0.657   8.801   7.409 -0.2738  0.0678 -0.0636
 7288SOL    HW123858   0.716   8.796   7.334 -0.8725 -0.7873 -0.5021
 7288SOL    HW223859   0.582   8.853   7.378 -1.1373 -1.3916 -0.5214
 7289SOL     OW23860   5.407   6.289   0.738 -0.2830  0.3129 -0.2697
 7289SOL    HW123861   5.435   6.377   0.711 -1.0386  0.8087  0.5182
 7289SOL    HW223862   5.404   6.239   0.656 -1.9433  1.6060 -1.0562
 7290SOL     OW23863   6.980   3.104   6.553 -0.4263  0.3651 -0.1364
 7290SOL    HW123864   6.920   3.042   6.594 -0.3054  0.6295  0.4511
 7290SOL    HW223865   6.932   3.187   6.552 -0.6918  0.2253 -1.1639
 7291SOL     OW23866   7.852   4.572   7.296 -1.0066  0.1724  0.2092
 7291SOL    HW123867   7.803   4.654   7.298 -0.7630  0.3099  1.6177
 7291SOL    HW223868   7.789   4.505   7.321 -1.0683 -0.0088 -0.4011
 7292SOL     OW23869   1.015   2.652   6.759  0.0725  0.6407 -0.7036
 7292SOL    HW123870   0.967   2.611   6.831  1.0931  1.7456  0.6710
 7292SOL    HW223871   1.074   2.714   6.802  1.4328  0.6320 -2.4409
 7293SOL     OW23872   8.649   0.764   4.817 -0.1159 -0.1140 -0.5280
 7293SOL    HW123873   8.584   0.737   4.752  0.3435  0.2924 -1.1738
 7293SOL    HW223874   8.597   0.793   4.892 -0.6277 -1.6993 -0.2485
 7294SOL     OW23875   8.785   0.944   2.562 -0.6345 -0.4452  0.1800
 7294SOL    HW123876   8.878   0.925   2.575 -0.1053  1.0009 -1.1468
 7294SOL    HW223877   8.782   1.000   2.484 -2.3988  1.3641  1.4316
 7295SOL     OW23878   3.766   4.821   7.208 -0.5903  0.4845  0.2535
 7295SOL    HW123879   3.816   4.833   7.127 -1.8569 -1.7211 -0.9583
 7295SOL    HW223880   3.822   4.767   7.263 -0.2794  0.8453  0.2936
 7296SOL     OW23881   8.395   4.665   7.657  0.1309 -0.5533 -0.0998
 7296SOL    HW123882   8.361   4.584   7.696 -0.2125 -0.7509 -0.7813
 7296SOL    HW223883   8.436   4.636   7.575  0.5902 -0.1195 -0.0208
 7297SOL     OW23884   2.157   5.959   8.531 -0.4537  0.1089 -0.5361
 7297SOL    HW123885   2.213   5.983   8.604 -0.2496  0.9617 -0.9588
 7297SOL    HW223886   2.117   6.041   8.503 -0.2735 -0.1337 -1.5797
 7298SOL     OW23887   1.969   7.514   0.888  0.4141  0.5043 -0.3565
 7298SOL    HW123888   1.933   7.516   0.799  1.8260 -1.1331 -1.0295
 7298SOL    HW223889   1.936   7.432   0.925  2.8383 -0.7528 -0.7958
 7299SOL     OW23890   2.121   7.357   3.389 -0.1307 -0.4597  0.1737
 7299SOL    HW123891   2.128   7.424   3.456  0.6549 -1.2303  0.8869
 7299SOL    HW223892   2.129   7.404   3.306 -0.6712  0.4454  0.6202
 7300SOL     OW23893   6.660   1.706   8.858  0.3186 -0.0763 -0.4179
 7300SOL    HW123894   6.682   1.763   8.932 -0.7276 -0.1703 -0.0078
 7300SOL    HW223895   6.591   1.649   8.892  0.4905 -0.7600 -1.1903
 7301SOL     OW23896   6.129   0.363   1.941 -0.4198 -0.7121 -0.2777
 7301SOL    HW123897   6.186   0.295   1.905  0.4801  0.4667 -1.1879
 7301SOL    HW223898   6.122   0.428   1.871 -2.4872 -0.5618  0.0122
 7302SOL     OW23899   7.703   4.775   5.382  0.1642 -0.0920  0.0426
 7302SOL    HW123900   7.736   4.765   5.472  0.4014 -1.1126 -0.1471
 7302SOL    HW223901   7.637   4.706   5.374  0.4846 -0.3193 -0.7117
 7303SOL     OW23902   7.033   2.128   5.738  0.0272  0.0011 -0.2667
 7303SOL    HW123903   6.973   2.092   5.804 -0.0456 -1.1353 -0.9139
 7303SOL    HW223904   7.112   2.076   5.747  0.3260  0.4142 -0.4932
 7304SOL     OW23905   3.450   2.580   3.837  0.0678 -0.1351  0.7813
 7304SOL    HW123906   3.383   2.549   3.898 -0.2021 -0.1817  0.4655
 7304SOL    HW223907   3.453   2.675   3.852 -0.6491 -0.0196  0.2305
 7305SOL     OW23908   2.453   8.622   7.867 -0.1307 -0.2225 -0.7313
 7305SOL    HW123909   2.508   8.570   7.809  0.1276  0.1145 -0.7916
 7305SOL    HW223910   2.438   8.704   7.819  2.7196  1.4153  0.9405
 7306SOL     OW23911   6.590   0.282   3.167  0.3207 -0.2781 -0.3042
 7306SOL    HW123912   6.570   0.189   3.182  0.7652 -0.4511 -0.7697
 7306SOL    HW223913   6.561   0.326   3.247  3.1457 -1.2313  1.3955
 7307SOL     OW23914   0.629   7.997   3.692  0.4749  0.7877  0.1032
 7307SOL    HW123915   0.677   8.069   3.734  1.2942  0.6403 -0.5446
 7307SOL    HW223916   0.551   8.038   3.656  1.3452  1.5580 -0.9975
 7308SOL     OW23917   0.420   2.240   2.241 -0.3262 -0.4878  0.1014
 7308SOL    HW123918   0.371   2.224   2.161 -0.0386  0.2353 -0.2313
 7308SOL    HW223919   0.353   2.260   2.307 -0.5234 -0.3987 -0.1266
 7309SOL     OW23920   3.013   3.611   1.159 -0.1445 -0.2855  0.3559
 7309SOL    HW123921   2.986   3.585   1.071 -0.0682 -1.0898  0.5652
 7309SOL    HW223922   2.947   3.676   1.186  0.2423  0.5138 -0.5680
 7310SOL     OW23923   5.684   4.971   3.781  0.1088  0.1585  1.0713
 7310SOL    HW123924   5.647   4.913   3.714  1.5375 -1.4954  1.6587
 7310SOL    HW223925   5.704   5.052   3.734  0.7538 -0.8405 -0.4552
 7311SOL     OW23926   5.783   4.665   2.712 -0.1352  0.3102  0.0543
 7311SOL    HW123927   5.865   4.616   2.711  0.0352  0.5729 -1.1788
 7311SOL    HW223928   5.759   4.672   2.619 -2.2344 -0.8556  0.4620
 7312SOL     OW23929   4.217   3.040   2.573 -0.5676 -0.2879  0.1511
 7312SOL    HW123930   4.178   2.958   2.541 -2.8514  1.2927 -1.3676
 7312SOL    HW223931   4.191   3.044   2.665 -0.5683 -1.1670  0.2010
 7313SOL     OW23932   0.898   3.131   1.063  0.2084 -0.3696 -0.3060
 7313SOL    HW123933   0.982   3.112   1.020  0.7281  2.2660 -0.6194
 7313SOL    HW223934   0.833   3.093   1.005  1.1209 -1.3761 -0.7143
 7314SOL     OW23935   1.207   5.971   4.127 -0.2684  0.1957  0.2376
 7314SOL    HW123936   1.280   5.930   4.081 -1.3046 -0.6308 -0.7356
 7314SOL    HW223937   1.129   5.936   4.084 -1.2356  1.8871  0.5059
 7315SOL     OW23938   6.399   3.672   8.072  0.4339 -0.3269  0.0427
 7315SOL    HW123939   6.414   3.746   8.014 -0.4433 -0.7985 -0.8120
 7315SOL    HW223940   6.365   3.711   8.153  3.7199  0.5593  1.1844
 7316SOL     OW23941   3.794   3.204   2.113 -0.3071  0.2387  0.1801
 7316SOL    HW123942   3.844   3.263   2.170  0.4560  0.3401 -0.5685
 7316SOL    HW223943   3.860   3.145   2.077 -0.9590 -0.5997  0.3333
 7317SOL     OW23944   0.232   1.876   5.476  0.4860  0.6350  0.6399
 7317SOL    HW123945   0.193   1.872   5.563  1.9773  2.1380  1.4542
 7317SOL    HW223946   0.175   1.935   5.427 -1.8303 -2.1933 -0.3196
 7318SOL     OW23947   7.708   5.299   3.218 -0.7284  0.0948 -0.4733
 7318SOL    HW123948   7.684   5.389   3.194 -0.2011  1.1740  2.5672
 7318SOL    HW223949   7.627   5.261   3.252 -0.9879 -0.7020 -1.9016
 7319SOL     OW23950   1.219   0.184   4.303 -0.1412  0.3050 -0.0496
 7319SOL    HW123951   1.309   0.193   4.273  0.0188 -0.5433  0.1331
 7319SOL    HW223952   1.189   0.273   4.317  0.4579  0.6243 -0.7283
 7320SOL     OW23953   7.014   3.056   5.025  0.7906 -0.3850 -0.3025
 7320SOL    HW123954   6.921   3.072   5.041  1.3459  0.6046  2.6165
 7320SOL    HW223955   7.047   3.137   4.988  0.8707  0.0342  0.6728
 7321SOL     OW23956   5.050   7.655   6.733  0.2848  0.1809  0.0333
 7321SOL    HW123957   5.132   7.698   6.758  0.2715 -0.5731  1.4955
 7321SOL    HW223958   5.044   7.580   6.792 -1.0896 -0.2036 -0.5618
 7322SOL     OW23959   6.092   3.392   0.128 -0.0684  0.7086  0.4175
 7322SOL    HW123960   6.181   3.362   0.114 -0.0417  0.7314  0.5322
 7322SOL    HW223961   6.059   3.336   0.199 -1.4873 -2.0272 -2.1830
 7323SOL     OW23962   0.469   1.412   1.147  0.3168 -0.4305  0.2046
 7323SOL    HW123963   0.551   1.426   1.101 -0.9367 -0.4735 -2.2493
 7323SOL    HW223964   0.425   1.343   1.096 -1.3010 -0.2812  1.3134
 7324SOL     OW23965   6.295   5.397   4.981 -0.1050 -0.0403 -0.7109
 7324SOL    HW123966   6.391   5.395   4.983 -0.0366 -1.0367 -2.4900
 7324SOL    HW223967   6.272   5.482   5.017  1.4816  0.4931 -0.8802
 7325SOL     OW23968   3.250   8.521   3.302  0.1963  0.1642  0.1394
 7325SOL    HW123969   3.279   8.572   3.226 -0.5262 -1.2242 -1.1162
 7325SOL    HW223970   3.197   8.583   3.353  1.8295  1.5213  0.2852
 7326SOL     OW23971   0.910   2.702   5.882  0.5476  0.0200  0.0935
 7326SOL    HW123972   0.896   2.622   5.933  0.8096 -0.6020 -0.7865
 7326SOL    HW223973   0.826   2.718   5.839  0.3294  0.5383  0.7059
 7327SOL     OW23974   2.628   5.475   0.702  0.3899  0.0461 -0.4285
 7327SOL    HW123975   2.628   5.380   0.701  0.7782  0.0441 -0.5887
 7327SOL    HW223976   2.710   5.499   0.746  0.2197  0.3062 -0.2450
 7328SOL     OW23977   5.272   1.405   7.203 -0.5034 -0.1167  0.2010
 7328SOL    HW123978   5.268   1.325   7.256  2.0653 -0.4912 -0.0378
 7328SOL    HW223979   5.244   1.378   7.116 -1.8184 -0.2081  0.6416
 7329SOL     OW23980   5.675   4.817   6.917 -0.4969 -0.0494  0.6335
 7329SOL    HW123981   5.626   4.852   6.991 -0.0295 -1.1207  1.4750
 7329SOL    HW223982   5.611   4.810   6.846 -0.7730  1.7324  0.6575
 7330SOL     OW23983   2.138   4.811   6.905 -0.1261 -0.9380 -0.0892
 7330SOL    HW123984   2.154   4.816   6.811  2.2465 -1.4638  0.2399
 7330SOL    HW223985   2.090   4.729   6.916  1.2754 -1.8778 -0.6779
 7331SOL     OW23986   3.277   0.097   7.933 -0.3477 -0.6693 -0.0885
 7331SOL    HW123987   3.188   0.076   7.907 -0.4341  0.2993 -0.6054
 7331SOL    HW223988   3.277   0.191   7.948  0.4761 -0.7268  0.3783
 7332SOL     OW23989   3.601   3.166   6.534 -0.2491 -0.1525 -0.7269
 7332SOL    HW123990   3.691   3.198   6.547  0.2078 -1.6785  0.1377
 7332SOL    HW223991   3.612   3.079   6.495 -1.4075  0.1122 -1.6815
 7333SOL     OW23992   7.387   1.648   1.605  0.1126  0.2148  0.2796
 7333SOL    HW123993   7.343   1.718   1.653 -1.4660 -0.0391 -0.7410
 7333SOL    HW223994   7.437   1.694   1.536  0.2185  0.4084  0.4836
 7334SOL     OW23995   1.269   3.155   2.493  0.0275  0.1813 -0.2256
 7334SOL    HW123996   1.244   3.222   2.557  0.0453 -0.3711  0.3675
 7334SOL    HW223997   1.355   3.184   2.461  0.1425  0.3184  0.2006
 7335SOL     OW23998   0.857   8.482   8.396 -0.4542  0.6096 -0.1541
 7335SOL    HW123999   0.805   8.514   8.322  0.7752  1.8525 -0.5306
 7335SOL    HW224000   0.947   8.486   8.365  0.1861  2.1369  1.7069
 7336SOL     OW24001   6.177   1.214   1.223 -0.1889 -0.1287 -0.0717
 7336SOL    HW124002   6.233   1.195   1.148  1.9592 -2.5793  1.9472
 7336SOL    HW224003   6.215   1.292   1.262 -0.3691  0.2575 -0.6597
 7337SOL     OW24004   8.496   6.762   5.826  0.5083  0.0311 -0.4981
 7337SOL    HW124005   8.432   6.717   5.770  0.4704 -0.6977  0.1278
 7337SOL    HW224006   8.463   6.750   5.915  0.5999  1.1364 -0.2986
 7338SOL     OW24007   1.437   4.859   6.286  0.5268  0.2633  0.2312
 7338SOL    HW124008   1.440   4.940   6.337 -2.5909 -0.0164  1.0398
 7338SOL    HW224009   1.421   4.888   6.196  1.3166  0.5644  0.1741
 7339SOL     OW24010   7.188   4.227   4.743  0.1020 -0.0696 -0.1274
 7339SOL    HW124011   7.126   4.300   4.739  1.4189  1.1247  0.3881
 7339SOL    HW224012   7.161   4.169   4.672 -2.5575 -0.4102  1.0621
 7340SOL     OW24013   0.471   4.777   3.441 -0.1357  0.0898 -0.4602
 7340SOL    HW124014   0.477   4.834   3.518  0.4254  1.0659 -1.2110
 7340SOL    HW224015   0.477   4.836   3.366  0.8728 -0.9760 -1.2628
 7341SOL     OW24016   7.736   1.591   8.440 -0.0646 -0.1263  0.4299
 7341SOL    HW124017   7.815   1.538   8.451 -1.1393 -1.7054  0.8681
 7341SOL    HW224018   7.762   1.679   8.467  1.8189 -0.3661 -0.4394
 7342SOL     OW24019   5.465   2.122   1.334 -0.2632 -0.4179 -0.2717
 7342SOL    HW124020   5.387   2.090   1.379 -0.3067 -0.4276 -0.3543
 7342SOL    HW224021   5.464   2.217   1.351  1.3326 -0.7646  2.2907
 7343SOL     OW24022   1.126   3.098   8.605  0.0077 -0.0725 -0.0928
 7343SOL    HW124023   1.220   3.113   8.591  0.3999 -2.8683 -1.0541
 7343SOL    HW224024   1.100   3.038   8.535 -2.2991 -0.0960  0.6980
 7344SOL     OW24025   4.663   6.829   8.071  0.1430 -0.1232 -0.4848
 7344SOL    HW124026   4.631   6.899   8.127  0.6228  0.5597 -1.0473
 7344SOL    HW224027   4.664   6.868   7.983  1.9125 -0.3255 -0.5758
 7345SOL     OW24028   5.433   5.075   0.889  0.3664  0.2318 -0.3855
 7345SOL    HW124029   5.490   5.004   0.861  1.3397  0.6252  0.5204
 7345SOL    HW224030   5.468   5.153   0.844  0.5846  0.4815  0.2069
 7346SOL     OW24031   1.968   7.796   1.309  0.2829 -0.1134 -0.2348
 7346SOL    HW124032   1.911   7.745   1.366  0.7549 -1.0342 -0.5629
 7346SOL    HW224033   1.909   7.840   1.248 -0.1077 -0.8784 -0.4296
 7347SOL     OW24034   3.636   8.883   7.308  0.4752  0.2182 -0.1242
 7347SOL    HW124035   3.727   8.888   7.276  0.1008 -0.6880 -1.4181
 7347SOL    HW224036   3.636   8.807   7.366  0.8591  1.0760  1.0127
 7348SOL     OW24037   1.820   4.523   3.652  0.0810  0.1498 -0.1876
 7348SOL    HW124038   1.898   4.578   3.664  0.0818  0.0397  0.3471
 7348SOL    HW224039   1.772   4.532   3.735 -0.4038  0.1081 -0.4659
 7349SOL     OW24040   1.762   4.015   2.278 -0.0273 -0.2319 -0.1482
 7349SOL    HW124041   1.832   3.992   2.217 -1.6276  1.3445 -2.7972
 7349SOL    HW224042   1.725   3.931   2.305  1.5594 -1.0156 -0.3253
 7350SOL     OW24043   5.815   0.745   3.664  0.2106 -0.4072  0.8557
 7350SOL    HW124044   5.808   0.659   3.705 -0.5453  0.2547  2.1812
 7350SOL    HW224045   5.734   0.756   3.616  1.2031 -1.2891 -1.1385
 7351SOL     OW24046   2.284   1.702   6.670  0.3138  0.0962 -0.2343
 7351SOL    HW124047   2.286   1.718   6.576 -0.9893  0.4753 -0.2194
 7351SOL    HW224048   2.265   1.609   6.678 -0.3490  0.2192 -0.3530
 7352SOL     OW24049   3.196   0.333   2.927  0.5275  1.0452  0.6440
 7352SOL    HW124050   3.280   0.380   2.923  0.7123  0.8572  1.9498
 7352SOL    HW224051   3.157   0.347   2.840  1.2938  2.2799  0.4647
 7353SOL     OW24052   2.496   2.384   0.066  0.5026 -0.4116  0.0278
 7353SOL    HW124053   2.495   2.428   0.150 -0.5730  1.4097 -0.8756
 7353SOL    HW224054   2.408   2.349   0.056  0.6662 -0.7409 -0.2819
 7354SOL     OW24055   3.039   5.331   4.208  0.1730 -0.3126  0.2147
 7354SOL    HW124056   3.124   5.340   4.252  0.1084 -0.7353  0.4304
 7354SOL    HW224057   3.015   5.421   4.184 -0.4457  0.1341  2.2960
 7355SOL     OW24058   6.898   0.214   6.020  0.0618  0.3484 -0.0635
 7355SOL    HW124059   6.875   0.156   6.093  3.0801 -0.4037  0.4497
 7355SOL    HW224060   6.872   0.165   5.942 -0.4567 -0.1841  0.4303
 7356SOL     OW24061   3.732   7.814   2.987  0.4446 -0.2124 -0.2872
 7356SOL    HW124062   3.727   7.777   2.899 -0.7059 -0.6639 -0.0443
 7356SOL    HW224063   3.642   7.841   3.007  0.9226  1.0532  0.2601
 7357SOL     OW24064   4.495   6.709   1.979 -0.0342  0.5819  0.1703
 7357SOL    HW124065   4.564   6.762   2.019  1.0121  0.4444 -1.3547
 7357SOL    HW224066   4.497   6.626   2.027 -0.3845  1.2122  1.3115
 7358SOL     OW24067   0.287   7.074   3.400  0.2936  0.9064  0.5788
 7358SOL    HW124068   0.368   7.125   3.402 -0.6607  2.4942  0.8464
 7358SOL    HW224069   0.305   6.998   3.455  1.8157  0.8842  0.0761
 7359SOL     OW24070   1.644   3.427   7.026  0.2136 -0.3608 -0.9496
 7359SOL    HW124071   1.695   3.507   7.015  0.2073 -0.4545 -1.7279
 7359SOL    HW224072   1.641   3.413   7.121  1.7502 -0.4396 -0.8971
 7360SOL     OW24073   1.372   0.444   7.309  0.2721 -0.0040  0.0197
 7360SOL    HW124074   1.338   0.452   7.220  0.4488  0.7332  0.0089
 7360SOL    HW224075   1.367   0.533   7.344 -0.6867 -0.4518  1.0782
 7361SOL     OW24076   7.687   4.525   2.425 -0.5665 -0.4834 -0.0376
 7361SOL    HW124077   7.641   4.598   2.467  0.3249  1.7281 -2.6159
 7361SOL    HW224078   7.681   4.543   2.332  2.2426 -2.1121 -0.6580
 7362SOL     OW24079   6.288   2.879   6.012  0.0708 -0.1937  0.1451
 7362SOL    HW124080   6.231   2.904   6.085  0.0722  1.0256 -0.2594
 7362SOL    HW224081   6.356   2.946   6.011  1.2793 -1.3694  0.3329
 7363SOL     OW24082   3.200   8.045   6.102  0.1786 -0.0337  0.0682
 7363SOL    HW124083   3.112   8.053   6.065 -0.0268  1.0508  0.7461
 7363SOL    HW224084   3.249   7.994   6.036 -0.3363  1.3302 -1.4438
 7364SOL     OW24085   0.670   2.119   5.704 -0.3169 -0.0396 -0.1603
 7364SOL    HW124086   0.735   2.124   5.634  1.4764 -1.3699  1.3002
 7364SOL    HW224087   0.591   2.085   5.661 -0.0498  1.3914 -1.9331
 7365SOL     OW24088   5.413   8.093   1.493 -0.0772  0.1155 -0.1996
 7365SOL    HW124089   5.428   8.057   1.406  1.6586  0.1354  0.0675
 7365SOL    HW224090   5.345   8.160   1.480 -2.4727 -2.2631 -0.8947
 7366SOL     OW24091   7.573   1.239   3.788 -0.0670  0.3853  0.4685
 7366SOL    HW124092   7.620   1.195   3.859 -0.9026 -0.2415  0.6553
 7366SOL    HW224093   7.528   1.312   3.831  0.8529  1.1044  0.2572
 7367SOL     OW24094   1.856   6.428   0.962  0.0302 -0.2426 -0.2701
 7367SOL    HW124095   1.791   6.425   1.032  0.4263 -0.5802  0.0846
 7367SOL    HW224096   1.893   6.516   0.968 -0.4957  0.0099 -0.5775
 7368SOL     OW24097   0.496   3.472   1.816 -0.4606 -0.0205  0.3807
 7368SOL    HW124098   0.496   3.542   1.750  0.2636 -1.2587 -0.9809
 7368SOL    HW224099   0.579   3.428   1.804 -0.3157 -0.2979  2.1607
 7369SOL     OW24100   5.092   7.428   4.715 -0.3684  0.1796 -0.0391
 7369SOL    HW124101   5.166   7.420   4.654 -0.0420 -1.1098  0.4961
 7369SOL    HW224102   5.015   7.433   4.658 -0.0286 -0.4689 -0.5723
 7370SOL     OW24103   3.170   4.209   6.999  0.4836  0.1679 -0.2151
 7370SOL    HW124104   3.227   4.262   7.055  1.1354  1.2120 -1.8097
 7370SOL    HW224105   3.107   4.272   6.963 -1.0295 -0.7849  0.6568
 7371SOL     OW24106   8.626   0.741   2.901  0.1934 -0.2930 -0.1056
 7371SOL    HW124107   8.656   0.768   2.815 -1.1634  1.2971 -0.1440
 7371SOL    HW224108   8.536   0.775   2.907  0.5995  0.6328  2.3061
 7372SOL     OW24109   0.010   2.407   1.670  0.1691 -0.1639 -0.0073
 7372SOL    HW124110   0.080   2.460   1.632 -0.4264  1.2560  0.7997
 7372SOL    HW224111   0.044   2.382   1.756  0.1747 -0.5396 -0.1165
 7373SOL     OW24112   3.253   3.100   3.002 -0.0111 -0.0377 -0.1945
 7373SOL    HW124113   3.247   3.059   3.089  0.5971  0.7472  0.2405
 7373SOL    HW224114   3.167   3.087   2.963 -1.2218  1.9044  1.5926
 7374SOL     OW24115   4.317   7.252   1.490 -0.5000  0.6373 -0.1561
 7374SOL    HW124116   4.379   7.208   1.548 -2.7590 -0.9748  1.1698
 7374SOL    HW224117   4.319   7.344   1.517  1.1306  0.6078 -0.0528
 7375SOL     OW24118   5.403   0.381   7.071 -0.2996  0.2805  0.2310
 7375SOL    HW124119   5.311   0.407   7.080 -0.5894 -0.3264 -0.7539
 7375SOL    HW224120   5.436   0.435   6.999 -0.2605 -0.3950 -0.2744
 7376SOL     OW24121   5.325   8.708   2.965  0.4114 -0.1595 -0.0343
 7376SOL    HW124122   5.273   8.736   2.889  2.8394  3.8076 -0.5613
 7376SOL    HW224123   5.410   8.684   2.928  0.7318 -1.0193  1.2041
 7377SOL     OW24124   2.776   2.396   8.828 -0.1693  0.4482  0.0262
 7377SOL    HW124125   2.760   2.362   8.916  0.9724 -1.8758 -0.5644
 7377SOL    HW224126   2.853   2.451   8.837 -2.3601  3.6253  1.1082
 7378SOL     OW24127   6.283   4.978   1.835  0.5796  0.4217 -0.4061
 7378SOL    HW124128   6.262   4.930   1.916 -0.5258 -0.2479 -1.0601
 7378SOL    HW224129   6.316   4.910   1.776  0.3345  0.7209 -0.8836
 7379SOL     OW24130   4.714   2.070   3.437  0.4881 -0.5892 -0.1133
 7379SOL    HW124131   4.756   2.154   3.457 -0.1446  0.3319 -2.3400
 7379SOL    HW224132   4.691   2.076   3.344 -0.3857 -2.8954 -0.1151
 7380SOL     OW24133   0.540   5.713   6.708 -0.3352 -0.3192 -0.0368
 7380SOL    HW124134   0.463   5.688   6.658 -0.2518 -0.4460 -0.1025
 7380SOL    HW224135   0.611   5.719   6.644 -0.3439  0.0525 -0.0178
 7381SOL     OW24136   5.257   6.809   0.686  0.2019 -0.4255 -0.2155
 7381SOL    HW124137   5.294   6.790   0.600 -1.1640 -0.5967 -0.7765
 7381SOL    HW224138   5.203   6.732   0.707  1.3959 -0.9213  1.3217
 7382SOL     OW24139   1.266   3.030   4.752 -0.0335  0.2643  0.1455
 7382SOL    HW124140   1.354   3.059   4.727  0.7677 -1.5168  0.7199
 7382SOL    HW224141   1.279   2.981   4.833 -1.5182 -0.2822  0.0876
 7383SOL     OW24142   2.578   4.904   2.826  0.2465 -0.8933  0.7812
 7383SOL    HW124143   2.491   4.901   2.786  0.9735 -0.7370 -0.9286
 7383SOL    HW224144   2.632   4.848   2.770  1.5357  0.1128  0.9562
 7384SOL     OW24145   8.895   3.059   3.459  0.3723 -0.2225  0.3491
 7384SOL    HW124146   8.845   3.077   3.379 -0.4789 -0.5657  0.7887
 7384SOL    HW224147   8.938   2.975   3.442 -0.2764 -0.5886  0.4538
 7385SOL     OW24148   3.808   1.850   4.016 -0.1926 -0.0864  0.5364
 7385SOL    HW124149   3.858   1.790   3.961 -0.1822 -0.0681  0.5263
 7385SOL    HW224150   3.810   1.810   4.103 -0.7348 -0.4382  0.3913
 7386SOL     OW24151   4.366   0.536   5.934  0.4145 -0.6530  0.2610
 7386SOL    HW124152   4.422   0.606   5.902  1.3170 -1.6794 -0.4928
 7386SOL    HW224153   4.320   0.504   5.856  0.8336 -1.6102  0.3931
 7387SOL     OW24154   3.136   0.442   6.711  0.4864  0.0623  0.2118
 7387SOL    HW124155   3.209   0.397   6.752  1.9224  1.9061 -0.1724
 7387SOL    HW224156   3.168   0.531   6.697 -2.5111  1.5507  1.8647
 7388SOL     OW24157   0.544   6.222   6.626 -0.1110 -0.2741  0.6034
 7388SOL    HW124158   0.486   6.152   6.595 -0.6643  0.3731  0.1390
 7388SOL    HW224159   0.595   6.182   6.696 -0.4825 -1.1170  0.4052
 7389SOL     OW24160   0.956   0.333   6.663  0.2347  0.2044 -0.1731
 7389SOL    HW124161   0.971   0.312   6.571 -2.3150 -5.1689  0.2251
 7389SOL    HW224162   0.861   0.335   6.673  0.4263  0.6358  2.3583
 7390SOL     OW24163   5.358   8.672   8.539 -0.1479  0.0322 -0.1322
 7390SOL    HW124164   5.427   8.607   8.526 -0.8049 -0.6278 -0.3630
 7390SOL    HW224165   5.319   8.648   8.623  0.7926  1.2425  0.6834
 7391SOL     OW24166   4.174   3.819   4.453 -0.2071 -0.1265 -0.2528
 7391SOL    HW124167   4.117   3.862   4.518 -2.1774 -0.5771 -1.6042
 7391SOL    HW224168   4.184   3.730   4.487  0.9432  0.3384  0.7209
 7392SOL     OW24169   7.186   7.492   2.007  0.2688  0.1422 -0.1993
 7392SOL    HW124170   7.205   7.481   1.914  1.6684 -1.3635  0.2039
 7392SOL    HW224171   7.272   7.488   2.050 -0.5021 -1.7193  1.3455
 7393SOL     OW24172   8.105   6.485   5.021 -0.4143 -0.1258 -0.1009
 7393SOL    HW124173   8.027   6.447   4.980  1.6366 -2.9719 -1.6527
 7393SOL    HW224174   8.140   6.415   5.075  0.7892  1.3134  1.0564
 7394SOL     OW24175   2.792   2.184   4.950 -0.0312 -0.0351 -0.1106
 7394SOL    HW124176   2.870   2.228   4.984 -0.9117  1.3361  0.2180
 7394SOL    HW224177   2.823   2.096   4.926  1.6296  0.5089 -0.1200
 7395SOL     OW24178   2.912   0.547   5.483  0.1549 -0.5015  0.2459
 7395SOL    HW124179   2.906   0.640   5.461 -0.9595 -0.7256 -0.5081
 7395SOL    HW224180   2.883   0.542   5.574  0.1860 -0.1071  0.2764
 7396SOL     OW24181   3.873   3.723   2.534 -0.0097  0.4132 -0.4055
 7396SOL    HW124182   3.921   3.782   2.591  2.7349 -1.2028 -0.8893
 7396SOL    HW224183   3.853   3.775   2.456  0.1042  1.3800  0.2003
 7397SOL     OW24184   1.611   8.463   1.748  0.1002 -0.3554  0.1693
 7397SOL    HW124185   1.631   8.464   1.842 -1.7469  1.9296  0.6257
 7397SOL    HW224186   1.518   8.485   1.743  0.6541  1.9968 -2.2621
 7398SOL     OW24187   6.134   5.886   5.122 -1.0304  0.3021  0.0826
 7398SOL    HW124188   6.051   5.913   5.082 -1.5458  0.8395  1.4636
 7398SOL    HW224189   6.171   5.967   5.156 -0.9982 -0.2399  1.3888
 7399SOL     OW24190   0.539   0.277   7.062  0.0829  0.2633 -0.4226
 7399SOL    HW124191   0.452   0.284   7.101  0.2392  1.6449 -0.2893
 7399SOL    HW224192   0.547   0.184   7.039 -1.3398  0.0782 -0.2631
 7400SOL     OW24193   4.282   6.800   1.312  0.0437  0.5887 -0.7429
 7400SOL    HW124194   4.356   6.813   1.253  2.6167 -4.0499  0.9074
 7400SOL    HW224195   4.318   6.817   1.399 -0.2258 -3.0125  0.2092
 7401SOL     OW24196   8.314   4.905   5.493 -0.6463  0.6191  0.4961
 7401SOL    HW124197   8.358   4.903   5.578  3.2180 -0.2145 -1.3089
 7401SOL    HW224198   8.361   4.971   5.442 -0.6670 -1.1069 -1.9687
 7402SOL     OW24199   3.274   8.012   7.688 -0.4528 -0.0171  0.0768
 7402SOL    HW124200   3.209   8.083   7.684  1.5614  1.9573  0.6507
 7402SOL    HW224201   3.238   7.951   7.753 -1.2872  1.5108  1.1167
 7403SOL     OW24202   8.193   3.885   4.828  0.0822  0.2845  0.2409
 7403SOL    HW124203   8.131   3.830   4.780  1.6669  0.3482 -2.0146
 7403SOL    HW224204   8.265   3.827   4.852  0.8754  0.9278 -0.4821
 7404SOL     OW24205   4.865   5.452   6.985  0.4103 -0.3408  0.5452
 7404SOL    HW124206   4.891   5.483   7.072 -1.1599  1.5381  0.4132
 7404SOL    HW224207   4.798   5.514   6.957 -0.7883 -2.2587 -1.0405
 7405SOL     OW24208   2.949   0.733   1.070  0.8200  0.2663 -0.3170
 7405SOL    HW124209   2.976   0.824   1.079 -0.5352  0.6927 -0.3106
 7405SOL    HW224210   2.856   0.733   1.091  1.0808 -1.3693  1.0599
 7406SOL     OW24211   8.123   6.801   4.031  0.1239 -0.2775  0.2898
 7406SOL    HW124212   8.073   6.842   4.101 -2.1930 -0.1986 -1.3172
 7406SOL    HW224213   8.196   6.862   4.015 -0.1819  0.4644  1.5599
 7407SOL     OW24214   5.982   6.886   6.908 -0.1928 -0.1318 -0.0763
 7407SOL    HW124215   6.065   6.909   6.866  0.3923 -1.4612  0.2782
 7407SOL    HW224216   5.992   6.794   6.932 -2.1617 -0.6154 -0.8928
 7408SOL     OW24217   8.581   6.081   6.736 -0.0128 -0.1393  0.1804
 7408SOL    HW124218   8.517   6.077   6.665 -0.1689  1.1817  0.2404
 7408SOL    HW224219   8.535   6.047   6.812 -0.2809 -0.2519 -0.0307
 7409SOL     OW24220   2.688   2.302   0.301  0.1627 -0.2910 -0.0887
 7409SOL    HW124221   2.662   2.214   0.326 -0.6839 -0.7379 -2.3091
 7409SOL    HW224222   2.779   2.293   0.272  0.0518 -0.4545 -0.3876
 7410SOL     OW24223   4.028   4.259   0.852  0.4189 -0.3673  0.0038
 7410SOL    HW124224   4.043   4.257   0.757  2.2838 -2.5164  0.2658
 7410SOL    HW224225   3.938   4.228   0.863 -0.6314  2.0259 -1.1016
 7411SOL     OW24226   6.962   1.909   8.845  0.6128  0.0633  0.5251
 7411SOL    HW124227   6.942   1.900   8.939  0.0517  0.7601  0.4831
 7411SOL    HW224228   7.039   1.966   8.843  1.5080 -1.1078  0.6090
 7412SOL     OW24229   0.017   3.982   4.143  0.3151 -0.5303  0.0708
 7412SOL    HW124230   0.006   3.922   4.070  0.6285 -1.9610  1.1609
 7412SOL    HW224231   0.090   3.946   4.194 -0.7549 -0.3445  1.8324
 7413SOL     OW24232   1.414   3.175   8.265 -0.2376  0.3838  0.4197
 7413SOL    HW124233   1.410   3.249   8.205 -0.3525  0.1496  0.1352
 7413SOL    HW224234   1.479   3.116   8.227 -0.1405  0.3405  0.6477
 7414SOL     OW24235   6.427   7.547   8.727 -0.2852  0.0059  0.1119
 7414SOL    HW124236   6.367   7.501   8.786 -0.1038  1.5179  1.5271
 7414SOL    HW224237   6.514   7.523   8.758 -0.1402 -0.8221 -0.8704
 7415SOL     OW24238   7.001   0.498   1.983  0.4145 -0.4774 -0.3009
 7415SOL    HW124239   7.013   0.471   2.074 -0.8099 -1.2016 -0.3363
 7415SOL    HW224240   7.087   0.485   1.943  1.4337  1.4558  1.1189
 7416SOL     OW24241   4.825   2.615   6.958  0.6788  0.3072  0.1664
 7416SOL    HW124242   4.856   2.700   6.929  1.4989 -0.3775 -1.0706
 7416SOL    HW224243   4.750   2.595   6.902  1.9085 -0.7656 -1.1706
 7417SOL     OW24244   4.529   8.312   7.628  0.3599  0.2176 -0.3271
 7417SOL    HW124245   4.548   8.230   7.673 -1.2972  0.8873  1.7113
 7417SOL    HW224246   4.611   8.361   7.632  0.8677 -0.6362 -0.0456
 7418SOL     OW24247   3.141   0.573   7.398 -0.2687 -0.3193  0.4058
 7418SOL    HW124248   3.164   0.500   7.455 -1.7612 -0.7343  0.5065
 7418SOL    HW224249   3.079   0.625   7.449 -0.3903  0.1871 -0.2442
 7419SOL     OW24250   1.666   7.978   3.440 -0.3543  0.6285 -0.0569
 7419SOL    HW124251   1.610   8.052   3.464 -0.4740  1.5433 -2.8291
 7419SOL    HW224252   1.748   7.995   3.486 -0.2312  2.7643 -0.9401
 7420SOL     OW24253   1.847   6.639   8.394 -0.9331  0.0205 -0.2057
 7420SOL    HW124254   1.763   6.666   8.430 -2.3273 -0.2885 -2.9627
 7420SOL    HW224255   1.848   6.543   8.403  0.0432  0.1521  1.5391
 7421SOL     OW24256   5.454   6.049   2.375 -0.2212  1.0647 -0.8703
 7421SOL    HW124257   5.450   6.094   2.460  1.1699  2.0936 -1.3162
 7421SOL    HW224258   5.547   6.036   2.359 -0.3992 -4.7990  0.6018
 7422SOL     OW24259   1.689   2.671   2.527 -0.8365  0.1074  0.0196
 7422SOL    HW124260   1.704   2.649   2.435 -0.4418 -0.4004  0.2022
 7422SOL    HW224261   1.604   2.633   2.548 -0.8162  0.0172 -0.0653
 7423SOL     OW24262   1.787   2.127   3.134  0.5584 -0.4487 -0.1586
 7423SOL    HW124263   1.753   2.216   3.127  0.6556  0.1054  3.7939
 7423SOL    HW224264   1.715   2.072   3.103 -1.3169  0.9491  1.4102
 7424SOL     OW24265   1.686   5.445   5.527 -0.0522 -0.0411  0.9236
 7424SOL    HW124266   1.595   5.454   5.554 -0.1397  0.4647  0.4844
 7424SOL    HW224267   1.729   5.401   5.600 -0.9023 -1.3768  0.6411
 7425SOL     OW24268   5.008   6.405   1.130  0.6219 -0.2150 -0.5255
 7425SOL    HW124269   5.037   6.436   1.215  0.2763  0.4612 -0.6478
 7425SOL    HW224270   5.050   6.463   1.067 -0.0927  0.0704 -0.7540
 7426SOL     OW24271   3.515   8.095   0.821  0.1119  0.3608 -0.0795
 7426SOL    HW124272   3.478   8.026   0.767 -1.2600  1.7702 -1.0231
 7426SOL    HW224273   3.439   8.140   0.858  0.9775  1.1472  0.7959
 7427SOL     OW24274   2.312   5.686   6.012  0.0967  0.1075  0.0155
 7427SOL    HW124275   2.245   5.692   6.081 -0.5699 -0.2271 -0.5894
 7427SOL    HW224276   2.388   5.732   6.049 -0.9093  1.7325  0.1776
 7428SOL     OW24277   3.249   5.407   7.623  0.1165 -0.1891 -0.3125
 7428SOL    HW124278   3.295   5.341   7.572  0.8851  0.3566 -0.3504
 7428SOL    HW224279   3.175   5.360   7.663  0.7422 -1.0996 -0.1962
 7429SOL     OW24280   1.350   6.005   1.041  0.3281 -0.4769  0.6918
 7429SOL    HW124281   1.353   6.021   0.946  0.2783 -0.5373  0.6797
 7429SOL    HW224282   1.438   5.974   1.062 -0.3700 -3.0596  0.1872
 7430SOL     OW24283   8.015   1.375   8.355 -0.2711 -0.0062  0.0383
 7430SOL    HW124284   8.101   1.346   8.386 -0.8480 -1.6522  0.1868
 7430SOL    HW224285   7.956   1.357   8.429 -0.4188  3.3075  0.8741
 7431SOL     OW24286   5.285   4.880   1.035  0.6652  0.7701  0.1619
 7431SOL    HW124287   5.306   4.885   1.128 -0.1877 -2.5347  0.6905
 7431SOL    HW224288   5.320   4.960   0.997  2.2796  1.5860  3.0848
 7432SOL     OW24289   4.789   4.529   5.770 -0.1812  0.1703  0.0864
 7432SOL    HW124290   4.858   4.593   5.786 -0.1659  0.0056  0.7296
 7432SOL    HW224291   4.833   4.444   5.777 -0.5148  0.0486  0.9347
 7433SOL     OW24292   5.811   3.624   6.574  0.5341  0.4723 -0.2957
 7433SOL    HW124293   5.880   3.576   6.527  0.8943  1.3345 -0.6723
 7433SOL    HW224294   5.855   3.660   6.651 -0.0371 -0.8643  0.6911
 7434SOL     OW24295   6.254   5.403   8.286 -0.2052 -0.1080 -0.4134
 7434SOL    HW124296   6.215   5.403   8.199 -0.2421  0.0645 -0.3961
 7434SOL    HW224297   6.294   5.317   8.294  1.9312  0.7000 -1.5680
 7435SOL     OW24298   2.568   0.311   4.571  0.6795  0.3715  0.6582
 7435SOL    HW124299   2.535   0.259   4.498  0.5937  0.6871  0.4692
 7435SOL    HW224300   2.612   0.248   4.628 -1.8530 -0.4288  1.8994
 7436SOL     OW24301   6.353   3.382   8.703  0.4008 -0.2971  0.2523
 7436SOL    HW124302   6.264   3.415   8.692  0.5670  0.0457 -0.0946
 7436SOL    HW224303   6.374   3.343   8.618 -0.0746 -2.0072  0.8850
 7437SOL     OW24304   3.007   2.201   2.396  0.0172 -0.1571 -0.3049
 7437SOL    HW124305   3.087   2.152   2.416  0.3484  0.4205 -0.1904
 7437SOL    HW224306   3.015   2.282   2.447 -2.1129 -1.4243  2.2712
 7438SOL     OW24307   5.498   4.450   4.603 -0.9129 -0.2739  0.3041
 7438SOL    HW124308   5.553   4.403   4.540  0.5111  1.9579 -0.2318
 7438SOL    HW224309   5.559   4.510   4.646 -2.5210  0.5949  1.4386
 7439SOL     OW24310   5.013   7.371   3.703 -0.0278 -0.5829  0.1910
 7439SOL    HW124311   4.931   7.337   3.667  1.5602 -2.0274 -2.3699
 7439SOL    HW224312   5.029   7.317   3.780 -0.4074 -1.8301 -0.5702
 7440SOL     OW24313   2.098   5.414   7.380 -0.3573 -0.5009  0.0374
 7440SOL    HW124314   2.115   5.508   7.378  0.4851 -0.5798  1.5854
 7440SOL    HW224315   2.134   5.381   7.298 -3.1149  0.8397 -1.8345
 7441SOL     OW24316   6.198   3.150   3.121  0.2796  0.0814 -0.2090
 7441SOL    HW124317   6.159   3.142   3.208  1.9360  1.0399  0.6758
 7441SOL    HW224318   6.287   3.116   3.131  0.6036  0.5015 -1.4373
 7442SOL     OW24319   7.369   0.336   3.608 -0.2038  0.2947 -0.4293
 7442SOL    HW124320   7.399   0.245   3.614  2.2374  0.9323 -1.7550
 7442SOL    HW224321   7.429   0.385   3.665 -1.1287  1.1802 -0.1761
 7443SOL     OW24322   6.375   0.676   7.435 -0.4612  0.2599  0.3980
 7443SOL    HW124323   6.388   0.680   7.340 -1.1940  1.3142  0.3343
 7443SOL    HW224324   6.301   0.616   7.447  1.3665 -2.1597  0.5124
 7444SOL     OW24325   1.886   2.439   8.885  0.0145  0.3699 -0.1326
 7444SOL    HW124326   1.801   2.395   8.884 -0.6348  1.5636  0.7148
 7444SOL    HW224327   1.888   2.491   8.805  0.0470  0.1796 -0.2570
 7445SOL     OW24328   3.518   0.928   5.122 -0.6534  0.3250  0.4418
 7445SOL    HW124329   3.551   0.973   5.199 -2.8020 -1.2326  2.4192
 7445SOL    HW224330   3.423   0.940   5.127 -1.1045 -2.3646 -0.2213
 7446SOL     OW24331   2.849   8.339   1.743 -0.2574  0.3315 -0.5905
 7446SOL    HW124332   2.845   8.427   1.781  0.0186 -0.6884  2.0237
 7446SOL    HW224333   2.939   8.330   1.712 -0.0907  0.7317 -0.2368
 7447SOL     OW24334   7.901   4.914   7.178 -0.3731  0.0225  0.5322
 7447SOL    HW124335   7.860   4.977   7.118  1.6636 -0.8530 -1.9925
 7447SOL    HW224336   7.995   4.921   7.159  0.1517 -1.8433  2.1412
 7448SOL     OW24337   2.813   5.316   5.777  0.1199 -0.1527  0.5636
 7448SOL    HW124338   2.898   5.289   5.812  0.0615 -1.0979  0.0157
 7448SOL    HW224339   2.749   5.274   5.834  0.0232 -0.3311  0.3257
 7449SOL     OW24340   1.641   0.491   4.925  0.6328 -0.0544 -0.0007
 7449SOL    HW124341   1.645   0.586   4.935 -2.0402  0.1170  0.0397
 7449SOL    HW224342   1.636   0.457   5.014 -2.2929  0.1009 -0.0135
 7450SOL     OW24343   3.555   2.628   5.119  0.5352 -0.1230 -0.5921
 7450SOL    HW124344   3.636   2.676   5.136  0.4287  0.4440 -1.5926
 7450SOL    HW224345   3.565   2.546   5.168  0.9691  0.6519  0.6760
 7451SOL     OW24346   0.873   1.703   4.835 -0.0814  0.4551 -0.0382
 7451SOL    HW124347   0.832   1.732   4.917 -2.3927 -0.4982 -0.7454
 7451SOL    HW224348   0.956   1.665   4.862  0.4386  2.5150  1.5231
 7452SOL     OW24349   2.775   5.824   6.941  0.6125 -0.0837  0.2686
 7452SOL    HW124350   2.694   5.800   6.987  1.3674 -1.1762  1.0787
 7452SOL    HW224351   2.746   5.850   6.854 -0.5691 -1.0826  0.3308
 7453SOL     OW24352   4.684   0.433   7.980 -0.2733  0.1520 -0.3633
 7453SOL    HW124353   4.696   0.527   7.964  0.8440 -0.0594 -0.8827
 7453SOL    HW224354   4.672   0.396   7.892  1.6464 -0.4724 -0.4150
 7454SOL     OW24355   6.793   7.362   3.060 -0.1900  0.1517  0.6019
 7454SOL    HW124356   6.861   7.295   3.068 -0.8559 -0.5725  0.3215
 7454SOL    HW224357   6.711   7.315   3.069 -0.7154  0.7164 -0.8804
 7455SOL     OW24358   4.123   2.430   8.262 -0.1306  0.0791 -0.0953
 7455SOL    HW124359   4.175   2.357   8.294  0.0050 -1.3221 -3.2137
 7455SOL    HW224360   4.186   2.502   8.254  0.8043 -0.8407 -1.3561
 7456SOL     OW24361   8.395   6.975   2.476  0.2525  0.0425  0.2573
 7456SOL    HW124362   8.359   7.041   2.535  1.4130  0.5517  0.4100
 7456SOL    HW224363   8.479   6.951   2.514  2.4277  2.4516 -2.5648
 7457SOL     OW24364   3.119   6.135   0.951 -0.3375 -0.3287 -0.1367
 7457SOL    HW124365   3.211   6.127   0.975 -0.1756  0.7338 -0.3738
 7457SOL    HW224366   3.119   6.182   0.868 -1.1785  2.5773  1.3605
 7458SOL     OW24367   1.926   4.306   2.431  0.2015 -0.3694  0.1025
 7458SOL    HW124368   1.949   4.231   2.486  0.0446 -0.0902  0.5543
 7458SOL    HW224369   1.832   4.300   2.419  0.0105  0.3728  1.0827
 7459SOL     OW24370   3.429   8.768   6.680  0.5268  0.1269 -0.1456
 7459SOL    HW124371   3.334   8.775   6.679  0.5538  0.9185  0.9251
 7459SOL    HW224372   3.447   8.704   6.749  0.7639 -0.2086 -0.5168
 7460SOL     OW24373   7.179   8.512   5.339  0.0399 -0.3659 -0.4487
 7460SOL    HW124374   7.099   8.548   5.377  1.0938  0.2290  1.3606
 7460SOL    HW224375   7.167   8.520   5.244 -1.1319  1.7717 -0.1855
 7461SOL     OW24376   4.118   7.353   1.188  0.2242 -0.5110  0.5436
 7461SOL    HW124377   4.090   7.362   1.097 -0.0459  1.1211  0.7568
 7461SOL    HW224378   4.159   7.437   1.208  0.6808 -1.0189  1.7990
 7462SOL     OW24379   5.182   1.015   4.889 -0.3578 -0.4776  0.4373
 7462SOL    HW124380   5.154   0.924   4.878 -2.9212  0.0463  1.7712
 7462SOL    HW224381   5.136   1.063   4.821  0.4617 -0.0617  0.1609
 7463SOL     OW24382   7.531   0.541   3.690 -0.3557  0.3738  0.0840
 7463SOL    HW124383   7.540   0.540   3.594  0.1488 -0.2124  0.1341
 7463SOL    HW224384   7.481   0.620   3.708 -0.5045  0.4608 -0.6732
 7464SOL     OW24385   7.801   4.902   7.716  0.4217  0.6811  0.7511
 7464SOL    HW124386   7.835   4.919   7.628  0.1176 -0.7093  0.3436
 7464SOL    HW224387   7.756   4.983   7.740  0.5512  1.0997 -0.3559
 7465SOL     OW24388   7.938   1.379   0.350 -0.7272 -0.1146 -0.4563
 7465SOL    HW124389   7.988   1.380   0.432  2.5317 -0.9946 -2.2545
 7465SOL    HW224390   7.896   1.293   0.349 -0.5430 -0.2182  0.1727
 7466SOL     OW24391   6.841   1.544   1.752 -0.1233 -0.3656  0.1149
 7466SOL    HW124392   6.900   1.543   1.676 -0.7712  2.2952 -0.5064
 7466SOL    HW224393   6.815   1.635   1.761 -2.1011 -1.0434  2.0059
 7467SOL     OW24394   2.372   5.160   5.706 -0.3309  0.4437  0.3382
 7467SOL    HW124395   2.410   5.245   5.726 -0.6262  0.8770 -0.8534
 7467SOL    HW224396   2.299   5.179   5.647 -0.1047 -0.6554 -0.3309
 7468SOL     OW24397   4.185   2.017   7.111 -0.4578 -0.1056 -0.1580
 7468SOL    HW124398   4.223   1.939   7.150  1.5969  1.3750  1.0147
 7468SOL    HW224399   4.116   2.044   7.173  1.1209  0.8342  1.2921
 7469SOL     OW24400   5.685   7.168   4.654 -0.5798 -0.1499  0.7154
 7469SOL    HW124401   5.716   7.252   4.621  0.7230 -1.2038 -0.8893
 7469SOL    HW224402   5.711   7.168   4.746 -0.6116  1.1907  0.7477
 7470SOL     OW24403   4.429   6.689   3.274 -0.8282  0.0113 -0.0649
 7470SOL    HW124404   4.497   6.678   3.209 -0.5422  0.9357  0.0595
 7470SOL    HW224405   4.444   6.776   3.310 -3.4735  1.2850 -1.7143
 7471SOL     OW24406   5.506   5.498   5.156  0.1447 -0.8425  0.3209
 7471SOL    HW124407   5.584   5.549   5.134 -0.6499  1.0303  1.5823
 7471SOL    HW224408   5.539   5.410   5.173  2.0408 -0.0395  1.1112
 7472SOL     OW24409   4.981   6.829   4.746  0.1930 -0.4220 -0.1422
 7472SOL    HW124410   4.915   6.828   4.677  0.9799 -0.4828 -0.9059
 7472SOL    HW224411   4.994   6.921   4.767 -0.8440 -0.4492  0.7250
 7473SOL     OW24412   4.008   7.168   3.283  0.4058 -0.1879  0.1050
 7473SOL    HW124413   4.077   7.165   3.216 -0.6190 -1.8506 -0.9621
 7473SOL    HW224414   3.926   7.175   3.233 -0.4427 -2.2955  1.0828
 7474SOL     OW24415   3.531   0.368   5.173  0.0041  0.2773 -0.2388
 7474SOL    HW124416   3.523   0.419   5.254  0.5070 -0.2909  0.1800
 7474SOL    HW224417   3.464   0.301   5.180  0.6700 -0.3639  0.1654
 7475SOL     OW24418   5.055   6.013   6.156 -0.9136  0.7665 -0.1301
 7475SOL    HW124419   5.130   6.066   6.183 -0.8551  0.1317  1.0256
 7475SOL    HW224420   5.026   5.970   6.237 -2.8846  1.4478 -0.4143
 7476SOL     OW24421   5.218   4.028   0.276 -0.3250 -0.2959  0.0726
 7476SOL    HW124422   5.213   4.098   0.341  0.4381  0.4966 -0.6988
 7476SOL    HW224423   5.195   3.949   0.324 -1.4268  0.5064  0.9151
 7477SOL     OW24424   4.584   7.042   1.808 -0.4357 -0.2422  0.0789
 7477SOL    HW124425   4.582   7.123   1.860  0.3113 -1.6856  2.5147
 7477SOL    HW224426   4.657   6.992   1.844 -0.9565 -2.0809 -1.2765
 7478SOL     OW24427   4.981   0.056   4.838  0.2255 -0.1426 -0.2754
 7478SOL    HW124428   4.978   0.027   4.747 -1.2226  1.6758 -0.8837
 7478SOL    HW224429   4.912   0.123   4.844  0.3115 -0.1741  2.1504
 7479SOL     OW24430   3.398   7.082   3.356 -0.3590  0.4208  0.5075
 7479SOL    HW124431   3.426   7.010   3.300 -1.1956 -0.8712  1.6779
 7479SOL    HW224432   3.316   7.112   3.319 -0.0427  0.7407  0.0569
 7480SOL     OW24433   3.283   1.809   0.157  0.6490  0.3272 -0.0177
 7480SOL    HW124434   3.315   1.831   0.070  0.3787 -1.5316 -0.6300
 7480SOL    HW224435   3.321   1.877   0.214 -0.7994  2.7785 -1.7767
 7481SOL     OW24436   0.472   1.693   4.964 -0.3784 -0.0278 -0.3321
 7481SOL    HW124437   0.388   1.648   4.972  0.0852 -1.0961 -1.1952
 7481SOL    HW224438   0.467   1.738   4.879 -0.7298  1.3687  0.3920
 7482SOL     OW24439   3.911   3.993   8.326 -0.6888  0.1309  0.5345
 7482SOL    HW124440   3.885   4.048   8.401 -0.5964 -0.1035  0.7412
 7482SOL    HW224441   3.996   3.957   8.352 -0.9501 -0.4539  0.5845
 7483SOL     OW24442   2.846   7.136   2.325 -0.3788 -0.3019 -0.7523
 7483SOL    HW124443   2.933   7.132   2.284 -0.3819  0.6804 -0.8739
 7483SOL    HW224444   2.842   7.224   2.363 -1.2350 -0.4260 -0.5511
 7484SOL     OW24445   2.368   2.891   6.104 -0.1651  0.2230 -0.0232
 7484SOL    HW124446   2.278   2.898   6.137 -0.6521  0.7447 -1.4081
 7484SOL    HW224447   2.358   2.864   6.013  1.0126  1.5269 -0.5760
 7485SOL     OW24448   8.071   3.270   3.660 -0.3903  0.1266  0.2250
 7485SOL    HW124449   8.051   3.282   3.753 -0.5726 -0.2511  0.2365
 7485SOL    HW224450   7.986   3.271   3.617 -0.2004  2.3546 -0.2031
 7486SOL     OW24451   3.314   1.991   3.387  0.5833  0.5081 -0.3034
 7486SOL    HW124452   3.341   1.899   3.381 -0.4422  0.2104 -0.5717
 7486SOL    HW224453   3.248   1.992   3.457  1.7939  1.3552  0.8746
 7487SOL     OW24454   2.832   6.990   4.227  0.0013 -0.6484 -0.1420
 7487SOL    HW124455   2.859   6.921   4.288  0.8207  0.9668  1.4391
 7487SOL    HW224456   2.817   7.066   4.283 -2.3223  0.0978 -1.6467
 7488SOL     OW24457   0.520   2.741   0.195  0.1841 -0.2372  0.2760
 7488SOL    HW124458   0.613   2.718   0.185  0.2445 -0.0118  0.3059
 7488SOL    HW224459   0.473   2.675   0.145  0.3763 -0.2145  0.0642
 7489SOL     OW24460   0.409   3.314   2.179  0.6410 -0.4721 -0.9159
 7489SOL    HW124461   0.314   3.305   2.176  0.5233 -0.0360  0.6570
 7489SOL    HW224462   0.425   3.405   2.157  0.3721  0.4832  2.3656
 7490SOL     OW24463   4.533   0.109   3.391  0.6912  0.0652  0.1695
 7490SOL    HW124464   4.494   0.085   3.475 -0.2677  1.7222  0.2392
 7490SOL    HW224465   4.520   0.032   3.336 -1.3578  0.0106  0.6604
 7491SOL     OW24466   8.024   3.766   3.298  0.2837  0.4880 -0.0231
 7491SOL    HW124467   7.961   3.805   3.358 -0.7176 -2.7952  1.2854
 7491SOL    HW224468   8.097   3.738   3.354  0.9302  0.4336 -0.8641
 7492SOL     OW24469   6.928   3.572   5.431 -0.2124  0.2681  0.3926
 7492SOL    HW124470   6.909   3.563   5.337 -0.3575  0.6941  0.3772
 7492SOL    HW224471   6.855   3.625   5.465 -0.4896 -0.4036  0.8659
 7493SOL     OW24472   5.240   3.427   0.211 -0.2514 -0.3601  0.3543
 7493SOL    HW124473   5.270   3.402   0.123  0.3454  1.7076 -0.0777
 7493SOL    HW224474   5.315   3.470   0.250 -0.4238 -1.4932  2.0330
 7494SOL     OW24475   3.104   3.209   5.282  0.2112  0.2666  0.8259
 7494SOL    HW124476   3.094   3.125   5.237 -0.8029 -0.0695  1.6428
 7494SOL    HW224477   3.099   3.274   5.213  1.2584 -0.3389  0.1467
 7495SOL     OW24478   3.565   6.972   6.154 -0.0809 -0.6356 -0.3423
 7495SOL    HW124479   3.519   6.918   6.089 -0.4898  0.1494 -0.7159
 7495SOL    HW224480   3.516   7.054   6.156  1.8047  0.5713 -1.4060
 7496SOL     OW24481   5.964   4.940   1.014 -0.0302  0.3928 -0.0895
 7496SOL    HW124482   5.894   4.876   1.023  0.7143 -0.8805 -2.4482
 7496SOL    HW224483   5.920   5.023   0.998 -1.0276 -0.3446 -1.3261
 7497SOL     OW24484   1.833   6.511   8.692  0.3582  0.3785  0.6194
 7497SOL    HW124485   1.748   6.545   8.664 -0.4645 -2.5744 -0.8814
 7497SOL    HW224486   1.862   6.457   8.619  3.7953  1.6053  0.9188
 7498SOL     OW24487   5.814   6.194   7.440  0.5748  0.0187 -0.2146
 7498SOL    HW124488   5.751   6.128   7.410  1.0461 -0.6750  0.2901
 7498SOL    HW224489   5.872   6.208   7.366 -0.2635  0.7928 -0.7458
 7499SOL     OW24490   5.110   3.503   4.148 -0.3506 -0.3662 -0.0765
 7499SOL    HW124491   5.197   3.499   4.188 -0.4466  0.5244  0.2568
 7499SOL    HW224492   5.127   3.516   4.055 -0.0334  3.0582  0.3229
 7500SOL     OW24493   2.526   6.600   0.081 -0.4284 -0.0721  0.1443
 7500SOL    HW124494   2.609   6.646   0.065 -0.0789 -0.4839  0.7129
 7500SOL    HW224495   2.486   6.648   0.154 -0.1289 -0.5711  0.6469
 7501SOL     OW24496   7.524   6.930   1.760  0.1126 -0.1222  0.0334
 7501SOL    HW124497   7.473   6.943   1.840  0.7623 -0.8309  0.5772
 7501SOL    HW224498   7.458   6.925   1.691 -0.3809  2.1590  0.2512
 7502SOL     OW24499   4.781   0.638   3.046  0.1923  0.0727  0.2683
 7502SOL    HW124500   4.741   0.703   3.104 -1.7734  0.9693 -1.9660
 7502SOL    HW224501   4.875   0.649   3.060 -0.1600  1.1929  2.2215
 7503SOL     OW24502   1.894   5.445   0.015  0.3633 -0.2925 -0.4912
 7503SOL    HW124503   1.984   5.435  -0.017  0.0183 -1.3343 -1.1659
 7503SOL    HW224504   1.904   5.495   0.096  1.4367  0.6761 -1.1706
 7504SOL     OW24505   6.152   1.319   4.372  0.4473  0.4643 -0.3637
 7504SOL    HW124506   6.166   1.414   4.366  3.0084  0.3186  1.5249
 7504SOL    HW224507   6.124   1.305   4.462 -1.4907 -0.4889 -1.0667
 7505SOL     OW24508   5.216   1.934   0.912 -0.1080 -0.3917 -0.8865
 7505SOL    HW124509   5.163   1.893   0.980  0.3422  1.0467  0.3896
 7505SOL    HW224510   5.178   2.021   0.901  2.8137  1.3371  1.2530
 7506SOL     OW24511   8.258   1.750   7.080 -0.0627  0.5729  0.1331
 7506SOL    HW124512   8.266   1.845   7.094  0.3570  0.5788 -0.1354
 7506SOL    HW224513   8.341   1.714   7.111  0.6146  0.5105 -1.6539
 7507SOL     OW24514   4.945   6.088   3.753  0.1411 -0.1541  0.2438
 7507SOL    HW124515   4.958   6.130   3.668  1.2701 -1.2016 -0.1279
 7507SOL    HW224516   5.032   6.087   3.793 -0.6611  2.1277  2.3390
 7508SOL     OW24517   8.229   0.194   1.353 -0.7095 -0.2877  0.1628
 7508SOL    HW124518   8.262   0.276   1.389 -0.0519 -0.6084  0.2980
 7508SOL    HW224519   8.185   0.151   1.426 -0.2454 -0.4792  0.3315
 7509SOL     OW24520   8.846   3.314   4.031  0.5788 -0.5767 -0.0409
 7509SOL    HW124521   8.903   3.302   3.955  0.7957  0.3868 -0.0551
 7509SOL    HW224522   8.889   3.267   4.102  1.3857  0.0946 -0.0653
 7510SOL     OW24523   5.516   7.011   0.638  0.1032  0.3926  0.3724
 7510SOL    HW124524   5.474   7.070   0.576  0.1335 -0.0722 -0.1013
 7510SOL    HW224525   5.548   6.939   0.584  0.3389  0.0962  0.9002
 7511SOL     OW24526   8.029   8.137   1.431  0.3937 -0.3941 -0.0552
 7511SOL    HW124527   7.958   8.195   1.404  0.7218  0.1167  0.1787
 7511SOL    HW224528   8.043   8.157   1.524 -0.5840 -1.9813  0.4844
 7512SOL     OW24529   5.601   8.490   2.195  0.4042 -0.7425  0.8905
 7512SOL    HW124530   5.570   8.500   2.285 -1.0357  2.4050  0.2131
 7512SOL    HW224531   5.651   8.570   2.179  0.8486 -1.3626 -1.0061
 7513SOL     OW24532   6.553   6.072   0.796 -0.1063  0.2751  0.4102
 7513SOL    HW124533   6.556   6.156   0.750  1.6559  1.0485  1.7971
 7513SOL    HW224534   6.643   6.039   0.792 -0.8669 -1.8131 -0.4992
 7514SOL     OW24535   2.611   5.108   4.748 -0.3552 -0.4036 -0.4600
 7514SOL    HW124536   2.690   5.066   4.783  0.0554  0.4961 -0.2547
 7514SOL    HW224537   2.542   5.087   4.811  0.0617  0.0209  0.1519
 7515SOL     OW24538   1.967   5.141   6.136 -0.3135 -0.6888  0.1074
 7515SOL    HW124539   2.007   5.058   6.160  3.7552  1.3778  1.2734
 7515SOL    HW224540   1.970   5.193   6.216 -1.2907  1.1276 -0.9832
 7516SOL     OW24541   8.615   7.458   2.177 -0.3172  0.0807 -0.1985
 7516SOL    HW124542   8.578   7.532   2.129 -2.3856  0.7010  2.0929
 7516SOL    HW224543   8.551   7.388   2.166 -0.5035  0.0297  1.0207
 7517SOL     OW24544   4.654   2.387   5.738 -0.0566  0.6541 -0.0042
 7517SOL    HW124545   4.649   2.479   5.762  0.1107  0.9055 -0.9120
 7517SOL    HW224546   4.746   2.372   5.718  0.1196  0.0094  1.1695
 7518SOL     OW24547   3.134   8.780   3.692 -0.1233 -0.3673 -0.0599
 7518SOL    HW124548   3.134   8.691   3.726 -1.0973 -0.2035  0.4108
 7518SOL    HW224549   3.130   8.769   3.597 -2.8743 -0.8783  0.0374
 7519SOL     OW24550   2.621   1.463   3.785 -0.2839 -0.1085  0.3339
 7519SOL    HW124551   2.528   1.487   3.776 -0.8152 -2.3859 -0.9510
 7519SOL    HW224552   2.619   1.377   3.826  1.0629 -1.4815 -2.2633
 7520SOL     OW24553   2.476   8.173   8.127  0.1966  0.3175 -0.0576
 7520SOL    HW124554   2.447   8.253   8.170  3.2843  0.6414  1.6895
 7520SOL    HW224555   2.463   8.191   8.034 -2.1278  1.5326  0.4186
 7521SOL     OW24556   1.899   0.177   3.140  0.3717  0.0069  0.0006
 7521SOL    HW124557   1.807   0.166   3.162  0.7332 -1.1232  1.0786
 7521SOL    HW224558   1.939   0.092   3.162  1.8124  0.7463  0.3499
 7522SOL     OW24559   4.789   6.183   1.280  0.3214  0.3470  0.4055
 7522SOL    HW124560   4.812   6.271   1.311  0.8438  1.1997 -2.2138
 7522SOL    HW224561   4.814   6.182   1.188  0.2933 -2.5699  0.3397
 7523SOL     OW24562   7.464   5.734   5.843  0.5600  0.4332  0.6626
 7523SOL    HW124563   7.534   5.692   5.793 -1.3601  0.0550 -1.9261
 7523SOL    HW224564   7.401   5.664   5.860 -0.3998  1.2690  0.6395
 7524SOL     OW24565   1.635   0.364   7.325  0.3387  0.0318  0.2494
 7524SOL    HW124566   1.544   0.392   7.321  0.4449  0.4275  0.4895
 7524SOL    HW224567   1.631   0.277   7.366  0.1400  0.4636  1.1803
 7525SOL     OW24568   3.123   4.946   7.018  0.6096  0.1021 -0.2238
 7525SOL    HW124569   3.195   4.906   6.969  0.6280  0.4932 -0.5184
 7525SOL    HW224570   3.044   4.916   6.973  0.6532  1.0883 -0.9760
 7526SOL     OW24571   0.269   1.837   2.333 -0.2044  0.5516  0.0011
 7526SOL    HW124572   0.176   1.816   2.347 -0.6918  2.7488  0.4722
 7526SOL    HW224573   0.299   1.869   2.418  0.7660  0.5653 -0.3400
 7527SOL     OW24574   5.479   3.462   3.020 -0.2878  0.2285  0.1921
 7527SOL    HW124575   5.523   3.385   3.055  3.1980  2.0005  0.1639
 7527SOL    HW224576   5.532   3.488   2.944 -1.0857  2.8103  0.4033
 7528SOL     OW24577   4.317   8.028   3.018 -0.7875 -0.5738  0.4589
 7528SOL    HW124578   4.391   8.084   3.041 -2.3071  1.6881  0.2338
 7528SOL    HW224579   4.240   8.079   3.044 -2.2997 -2.2114 -0.5977
 7529SOL     OW24580   3.728   5.233   7.353  1.3540 -0.1944 -0.4455
 7529SOL    HW124581   3.715   5.317   7.309  0.2168  0.8982  1.7976
 7529SOL    HW224582   3.764   5.257   7.438 -0.2995 -1.8633  0.7856
 7530SOL     OW24583   7.425   1.610   6.358  0.3164 -0.2341  0.0508
 7530SOL    HW124584   7.345   1.567   6.327 -0.4252  0.3080  1.1938
 7530SOL    HW224585   7.414   1.702   6.335 -0.0121  0.0860  1.3934
 7531SOL     OW24586   4.255   0.107   5.364 -0.2628 -0.3101  0.3433
 7531SOL    HW124587   4.210   0.189   5.346  0.0492 -0.6871 -2.5984
 7531SOL    HW224588   4.244   0.055   5.284  1.6384 -2.1495  1.1679
 7532SOL     OW24589   4.572   4.887   4.941  0.5455  0.6608 -0.0267
 7532SOL    HW124590   4.533   4.857   5.023  0.5025 -0.7226 -0.5282
 7532SOL    HW224591   4.636   4.820   4.919  0.0212  0.6050 -1.5044
 7533SOL     OW24592   5.157   2.723   6.910  0.7186 -0.2750 -0.1494
 7533SOL    HW124593   5.083   2.731   6.971  0.0482  0.7776 -1.0676
 7533SOL    HW224594   5.228   2.771   6.953  0.6021 -0.5134  0.3165
 7534SOL     OW24595   3.158   7.341   7.065 -0.2226 -0.2350  0.5429
 7534SOL    HW124596   3.132   7.250   7.080 -0.9570 -0.0129  0.6780
 7534SOL    HW224597   3.251   7.337   7.044 -0.4461 -1.1125 -0.3355
 7535SOL     OW24598   1.315   2.421   6.392  0.0130 -0.5760  0.1617
 7535SOL    HW124599   1.266   2.355   6.344  1.0989 -0.9462 -0.4687
 7535SOL    HW224600   1.249   2.483   6.423 -1.0088 -1.9305  0.7453
 7536SOL     OW24601   1.943   4.177   4.116 -0.7066 -0.5789  0.1555
 7536SOL    HW124602   1.868   4.125   4.142 -0.8588  0.5613  2.1776
 7536SOL    HW224603   1.915   4.219   4.034 -0.5059 -3.6691 -1.6195
 7537SOL     OW24604   2.152   8.485   7.697 -0.1586  0.3155  0.1907
 7537SOL    HW124605   2.142   8.426   7.771  0.0818  0.0829  0.0400
 7537SOL    HW224606   2.087   8.554   7.712 -2.1346 -1.2149 -0.8423
 7538SOL     OW24607   8.828   3.079   8.556  0.5981  0.0252  0.1843
 7538SOL    HW124608   8.887   3.138   8.602  1.7740 -1.7330  1.0188
 7538SOL    HW224609   8.793   3.022   8.624  1.2188 -1.6644 -0.8460
 7539SOL     OW24610   2.517   0.739   0.035 -0.1353 -0.3492  0.0439
 7539SOL    HW124611   2.432   0.705   0.006 -0.6368  0.4790  0.5221
 7539SOL    HW224612   2.543   0.801  -0.034 -0.7899  0.7609  0.7680
 7540SOL     OW24613   2.399   7.630   2.004 -0.3507 -0.3963 -0.2212
 7540SOL    HW124614   2.319   7.676   2.029  1.1922  2.3329  0.1461
 7540SOL    HW224615   2.460   7.700   1.981  1.8640 -2.3776 -0.7079
 7541SOL     OW24616   2.811   3.133   0.449  0.6257  0.1680 -0.2923
 7541SOL    HW124617   2.775   3.220   0.469  0.6670  0.6173 -1.9990
 7541SOL    HW224618   2.818   3.090   0.534 -0.7977  1.2908  0.4402
 7542SOL     OW24619   2.252   1.435   6.785 -0.1777 -0.2333  0.7953
 7542SOL    HW124620   2.182   1.464   6.843 -1.2632 -0.9737 -0.1050
 7542SOL    HW224621   2.230   1.344   6.765 -0.4576  0.3060 -1.6419
 7543SOL     OW24622   2.036   4.951   0.622  0.2610  0.7694 -0.1396
 7543SOL    HW124623   2.080   4.896   0.688  0.0033 -2.2069 -2.2406
 7543SOL    HW224624   2.100   5.020   0.603  1.0604  0.6792  1.8792
 7544SOL     OW24625   1.763   8.500   5.863 -0.1614 -0.4188  0.4762
 7544SOL    HW124626   1.850   8.508   5.903  0.2193 -0.4682 -0.3251
 7544SOL    HW224627   1.721   8.584   5.881  1.3699  1.0476 -2.1787
 7545SOL     OW24628   1.529   6.963   5.894 -0.2432  0.0021 -0.2180
 7545SOL    HW124629   1.524   6.876   5.854  1.5191  0.0950 -0.7121
 7545SOL    HW224630   1.551   7.022   5.821 -2.7860  1.1609 -0.1860
 7546SOL     OW24631   1.792   2.959   1.623 -0.3703 -0.3196  0.1905
 7546SOL    HW124632   1.813   3.045   1.660  0.6413 -0.1871 -0.6246
 7546SOL    HW224633   1.741   2.979   1.545 -0.5894 -0.4848  0.2927
 7547SOL     OW24634   5.082   8.284   4.213 -0.4992 -0.0859  0.7459
 7547SOL    HW124635   5.025   8.267   4.288 -2.2154 -0.3017 -0.5587
 7547SOL    HW224636   5.023   8.311   4.143  0.8174 -1.7362 -1.0986
 7548SOL     OW24637   6.377   8.552   2.997 -0.2125  0.6958 -0.1409
 7548SOL    HW124638   6.290   8.538   3.035 -0.9559  0.9951 -1.6095
 7548SOL    HW224639   6.416   8.620   3.051 -0.9726  0.6827  0.4449
 7549SOL     OW24640   2.131   3.589   4.128  0.2576 -0.3922  0.6390
 7549SOL    HW124641   2.161   3.605   4.218  0.4433 -0.1795  0.5409
 7549SOL    HW224642   2.198   3.629   4.073 -1.2382  2.0345  0.4350
 7550SOL     OW24643   6.859   7.114   6.069  0.5310 -0.8570 -0.8170
 7550SOL    HW124644   6.862   7.209   6.071 -0.9079 -0.7628  2.1794
 7550SOL    HW224645   6.883   7.091   5.979 -0.3084  2.3452 -1.9906
 7551SOL     OW24646   6.326   1.514   7.012  0.0860  0.2523  0.0595
 7551SOL    HW124647   6.392   1.459   7.054  0.2584 -0.4982 -1.1299
 7551SOL    HW224648   6.260   1.528   7.079  0.8920  0.0577  0.9197
 7552SOL     OW24649   6.373   4.702   2.543 -0.2818 -0.0191 -0.4091
 7552SOL    HW124650   6.362   4.636   2.611  1.4669 -1.0959 -1.1047
 7552SOL    HW224651   6.287   4.742   2.534 -0.5878  0.1653  2.4075
 7553SOL     OW24652   6.968   7.838   1.290  0.7416 -0.9660 -0.3487
 7553SOL    HW124653   6.959   7.898   1.364 -1.7013 -0.9829 -0.5427
 7553SOL    HW224654   6.906   7.768   1.308  1.9832 -2.3402 -1.1927
 7554SOL     OW24655   5.335   2.665   4.378  0.0753 -0.3014 -0.4349
 7554SOL    HW124656   5.277   2.590   4.363  1.7290 -1.8478  0.6080
 7554SOL    HW224657   5.395   2.664   4.304  2.5295 -2.4501  1.4222
 7555SOL     OW24658   1.504   6.883   0.444  0.2652  0.5334  0.2778
 7555SOL    HW124659   1.531   6.795   0.470  0.0191  0.1374 -0.7311
 7555SOL    HW224660   1.432   6.905   0.503  2.4673  1.4932  2.8332
 7556SOL     OW24661   5.548   2.383   5.338 -0.1554  0.1801 -0.0057
 7556SOL    HW124662   5.618   2.317   5.337 -0.6935 -0.4214  0.5736
 7556SOL    HW224663   5.563   2.432   5.419  0.5546  1.1298 -0.6957
 7557SOL     OW24664   8.786   2.957   1.367  1.0582 -0.3197 -0.2464
 7557SOL    HW124665   8.776   3.038   1.317 -0.0266 -0.8592 -0.9318
 7557SOL    HW224666   8.701   2.944   1.410  1.6900 -0.3263  1.0705
 7558SOL     OW24667   3.538   4.296   5.989 -0.0542  0.5910  0.0875
 7558SOL    HW124668   3.610   4.291   6.052 -0.5574 -2.8642  0.5756
 7558SOL    HW224669   3.581   4.308   5.904  0.8258  1.9390  0.6954
 7559SOL     OW24670   3.810   3.723   8.302 -0.2476 -0.5321 -0.2688
 7559SOL    HW124671   3.730   3.766   8.331  0.7204  1.7135 -0.7334
 7559SOL    HW224672   3.841   3.776   8.229  1.2737 -1.7973 -0.6045
 7560SOL     OW24673   4.095   3.760   2.283 -0.0611 -0.5181  0.3240
 7560SOL    HW124674   4.114   3.696   2.351  1.6594 -0.8473 -0.4366
 7560SOL    HW224675   4.017   3.806   2.315  1.8827  0.8501  3.5937
 7561SOL     OW24676   5.385   1.931   4.431 -0.2887 -0.0213 -0.0209
 7561SOL    HW124677   5.373   1.887   4.515 -1.1680 -0.2476 -0.2476
 7561SOL    HW224678   5.458   1.884   4.390 -1.1279 -1.2126 -0.2016
 7562SOL     OW24679   2.505   1.246   0.878  0.2834 -0.0939  0.1394
 7562SOL    HW124680   2.572   1.220   0.815  1.7599  2.1569  0.6494
 7562SOL    HW224681   2.461   1.320   0.836 -0.7627 -0.4661  0.5413
 7563SOL     OW24682   6.971   4.547   8.047  0.7403  0.1446  0.0809
 7563SOL    HW124683   6.946   4.591   8.128 -0.8055 -2.2165  1.0214
 7563SOL    HW224684   7.067   4.545   8.048  0.7909  1.9877  0.7579
 7564SOL     OW24685   3.667   6.438   5.300 -0.1926  0.7577 -0.2144
 7564SOL    HW124686   3.680   6.533   5.301  2.1638  0.5028 -0.8331
 7564SOL    HW224687   3.585   6.426   5.252 -0.5162  2.4633 -0.1773
 7565SOL     OW24688   1.644   1.607   5.456  0.8466  0.1155 -0.4890
 7565SOL    HW124689   1.698   1.666   5.404  1.0149 -0.4694 -0.9919
 7565SOL    HW224690   1.604   1.548   5.392 -0.7774  0.8336 -0.1833
 7566SOL     OW24691   1.265   2.082   8.055 -0.1650  0.4701  0.2130
 7566SOL    HW124692   1.170   2.071   8.049 -0.1564  0.5482 -0.0718
 7566SOL    HW224693   1.277   2.145   8.126 -0.3296  0.5331  0.1852
 7567SOL     OW24694   1.827   0.818   3.477  0.0957 -0.0788  0.0451
 7567SOL    HW124695   1.792   0.904   3.453  0.3628  0.2084  0.6463
 7567SOL    HW224696   1.831   0.769   3.395  1.5996  1.0854 -0.6320
 7568SOL     OW24697   3.221   6.447   2.132  0.0063 -0.1869  0.9156
 7568SOL    HW124698   3.187   6.390   2.063  1.5540 -0.1593  0.0746
 7568SOL    HW224699   3.145   6.493   2.166 -0.6985  0.5315 -1.4533
 7569SOL     OW24700   6.634   1.233   2.530 -0.1421  0.2352  0.0595
 7569SOL    HW124701   6.611   1.273   2.614  0.1319 -0.3058  0.3931
 7569SOL    HW224702   6.654   1.308   2.474  0.3763  0.5825  0.6876
 7570SOL     OW24703   8.428   4.517   7.976 -0.1812  0.3701 -0.7238
 7570SOL    HW124704   8.409   4.481   7.890 -1.0129  1.2635 -0.9293
 7570SOL    HW224705   8.419   4.443   8.036 -3.0868  0.3840 -0.9726
 7571SOL     OW24706   6.800   4.042   3.996 -0.0089 -0.7273  0.3064
 7571SOL    HW124707   6.730   3.987   3.963 -2.0170  0.4968  2.2655
 7571SOL    HW224708   6.771   4.069   4.083  2.7192  0.1920  1.0506
 7572SOL     OW24709   4.779   6.371   3.645 -0.0152 -0.3092  0.2765
 7572SOL    HW124710   4.760   6.331   3.730  1.9151 -1.6747  0.1272
 7572SOL    HW224711   4.778   6.465   3.662 -1.6932 -0.4939  1.3305
 7573SOL     OW24712   7.296   1.315   6.696 -0.0620  0.3525  0.2404
 7573SOL    HW124713   7.206   1.315   6.662  1.0720  0.1103 -3.1994
 7573SOL    HW224714   7.341   1.381   6.643  2.4449 -1.6590 -0.3264
 7574SOL     OW24715   7.506   7.275   8.776  0.0641 -0.0866  0.2675
 7574SOL    HW124716   7.598   7.301   8.770  0.4846 -1.7301 -1.4849
 7574SOL    HW224717   7.463   7.321   8.704 -0.3803  0.2101  0.7152
 7575SOL     OW24718   0.077   4.824   1.988 -0.2343 -0.4663 -0.5090
 7575SOL    HW124719   0.005   4.838   1.926 -0.3665 -0.1365 -0.2869
 7575SOL    HW224720   0.155   4.817   1.933 -0.1121  1.4203 -0.6501
 7576SOL     OW24721   6.735   7.279   2.095 -0.4967 -0.2975  0.2549
 7576SOL    HW124722   6.724   7.310   2.185 -0.9661 -1.4896  0.6316
 7576SOL    HW224723   6.807   7.331   2.060  0.5637 -0.6773  1.7501
 7577SOL     OW24724   1.618   4.918   5.904  0.1197 -0.0702 -0.3159
 7577SOL    HW124725   1.695   4.946   5.853  1.0467 -1.6908  0.1177
 7577SOL    HW224726   1.655   4.865   5.975 -1.3898 -0.5470  0.1436
 7578SOL     OW24727   1.875   7.547   0.608 -0.5435  0.3872  0.0631
 7578SOL    HW124728   1.938   7.561   0.537 -0.4442  2.1201  0.4464
 7578SOL    HW224729   1.829   7.467   0.583  0.2445  0.3438 -1.3963
 7579SOL     OW24730   3.330   1.756   7.902  0.0616 -0.0320  0.0906
 7579SOL    HW124731   3.290   1.703   7.833  0.0057  0.7313 -0.4709
 7579SOL    HW224732   3.257   1.792   7.951  0.0756  0.4417 -0.2321
 7580SOL     OW24733   6.460   4.500   6.272 -0.8644  0.2004  0.4854
 7580SOL    HW124734   6.461   4.522   6.365  0.9520  3.5259 -0.1600
 7580SOL    HW224735   6.425   4.578   6.229 -0.0755 -0.5656 -1.7125
 7581SOL     OW24736   7.989   7.248   2.372 -0.2369  0.0639 -0.2541
 7581SOL    HW124737   8.037   7.300   2.437 -2.4189  0.2922  1.2829
 7581SOL    HW224738   7.992   7.158   2.406 -2.4505  0.3724  0.9569
 7582SOL     OW24739   5.917   2.496   4.569 -0.6873 -0.3186  0.0770
 7582SOL    HW124740   5.872   2.481   4.652 -0.7520 -0.1460  0.0719
 7582SOL    HW224741   5.976   2.420   4.560 -0.6502 -0.3166  0.2983
 7583SOL     OW24742   0.698   1.908   4.403  0.3371 -0.0737 -0.6549
 7583SOL    HW124743   0.751   1.984   4.425 -1.6502  1.1414  0.1556
 7583SOL    HW224744   0.608   1.935   4.420 -0.4146 -2.8002  0.3023
 7584SOL     OW24745   5.268   7.304   0.727  0.1955 -0.7262 -0.0261
 7584SOL    HW124746   5.245   7.336   0.814  0.4759  1.2871 -0.6338
 7584SOL    HW224747   5.258   7.209   0.732 -3.4270 -0.4107  1.1309
 7585SOL     OW24748   2.966   6.040   5.814  0.0982  0.6805 -0.3834
 7585SOL    HW124749   2.875   6.069   5.816 -0.3870 -0.7200 -0.9497
 7585SOL    HW224750   3.015   6.118   5.790 -0.9725  1.4104 -0.2800
 7586SOL     OW24751   1.439   5.120   2.619 -0.1070 -0.9217 -0.5385
 7586SOL    HW124752   1.344   5.131   2.626 -0.0157  0.7692 -1.4305
 7586SOL    HW224753   1.456   5.034   2.658 -1.9771 -1.2101 -0.2548
 7587SOL     OW24754   3.323   0.461   4.068 -0.4859  0.2692 -0.1753
 7587SOL    HW124755   3.307   0.521   3.996  0.4120  0.2726 -0.3791
 7587SOL    HW224756   3.408   0.487   4.103 -0.2941 -0.5974  0.0226
 7588SOL     OW24757   4.097   3.371   6.891 -0.1169 -0.1870 -0.0784
 7588SOL    HW124758   4.086   3.411   6.805  0.1417  1.7192  0.7255
 7588SOL    HW224759   4.057   3.284   6.883  2.2567 -1.1715 -2.8718
 7589SOL     OW24760   5.909   2.314   6.602  0.3057 -0.2830 -0.3333
 7589SOL    HW124761   5.996   2.306   6.640  0.4090 -3.2743 -0.9495
 7589SOL    HW224762   5.924   2.349   6.514  0.7503  0.2717 -0.0413
 7590SOL     OW24763   5.722   4.820   1.039 -0.2320 -0.2895 -0.2697
 7590SOL    HW124764   5.715   4.733   1.000  1.7059 -0.4244 -0.4265
 7590SOL    HW224765   5.672   4.877   0.981 -2.2058 -1.3999  0.2776
 7591SOL     OW24766   6.279   7.821   8.432  0.5712  0.3246 -0.3570
 7591SOL    HW124767   6.305   7.729   8.443 -0.6433  0.1611  1.4100
 7591SOL    HW224768   6.233   7.822   8.348  0.7992 -0.6201 -0.5181
 7592SOL     OW24769   5.578   6.836   7.929 -0.2078 -0.0439 -0.1592
 7592SOL    HW124770   5.608   6.762   7.981 -0.6922  0.0275  0.2295
 7592SOL    HW224771   5.625   6.828   7.846  0.6624 -0.1028  0.3195
 7593SOL     OW24772   1.902   1.129   6.545 -0.6333  0.1853  0.1425
 7593SOL    HW124773   1.854   1.212   6.555 -0.0423  0.5852 -0.2558
 7593SOL    HW224774   1.954   1.142   6.466  0.1683 -0.2252  0.5976
 7594SOL     OW24775   1.910   7.776   3.367 -0.5628 -0.4751  0.2349
 7594SOL    HW124776   1.825   7.794   3.407 -0.9927 -0.7005 -0.5635
 7594SOL    HW224777   1.934   7.689   3.399 -0.9400 -0.6861 -0.0438
 7595SOL     OW24778   0.419   1.166   8.787  0.2050 -0.5916  0.2961
 7595SOL    HW124779   0.371   1.198   8.864 -0.2786 -1.3525  0.3235
 7595SOL    HW224780   0.396   1.074   8.782 -1.3317 -0.1674 -1.8850
 7596SOL     OW24781   6.754   5.353   6.179  0.7985 -0.2462  0.7816
 7596SOL    HW124782   6.826   5.303   6.141 -0.1440 -0.1337 -1.2774
 7596SOL    HW224783   6.797   5.426   6.224  1.9924  0.2530 -1.0287
 7597SOL     OW24784   3.888   3.558   5.326  0.2341 -0.3217 -0.2089
 7597SOL    HW124785   3.851   3.498   5.391 -1.4706 -1.1701 -1.8627
 7597SOL    HW224786   3.938   3.621   5.378  0.8080 -2.2400  1.7244
 7598SOL     OW24787   7.029   2.374   5.315 -0.2464  0.3947  0.1325
 7598SOL    HW124788   6.959   2.398   5.254 -0.2197 -0.5149 -0.2713
 7598SOL    HW224789   7.094   2.330   5.261 -0.2138 -0.4044  0.8107
 7599SOL     OW24790   1.266   7.065   3.127 -0.3733 -0.3350 -0.4033
 7599SOL    HW124791   1.269   7.135   3.191  1.6355  0.3905 -1.2232
 7599SOL    HW224792   1.204   7.002   3.163  0.1797  0.3625  1.9106
 7600SOL     OW24793   3.898   6.253   6.719  0.4504  0.6803 -0.2757
 7600SOL    HW124794   3.891   6.331   6.664 -0.5822 -0.4930 -1.8919
 7600SOL    HW224795   3.816   6.250   6.769  0.6160  0.7804  0.0058
 7601SOL     OW24796   1.054   6.543   7.040 -0.1654  0.3598  0.1131
 7601SOL    HW124797   1.001   6.507   7.112  0.5735 -1.3424 -0.1313
 7601SOL    HW224798   1.097   6.619   7.079  1.3411 -1.3329  1.9849
 7602SOL     OW24799   8.629   8.485   5.272 -0.1925 -0.3462  0.1895
 7602SOL    HW124800   8.622   8.522   5.184  0.1740 -2.1558 -0.6587
 7602SOL    HW224801   8.628   8.560   5.330 -1.8907  0.8494 -1.2579
 7603SOL     OW24802   7.593   3.045   1.754 -0.0294  0.3086  0.2779
 7603SOL    HW124803   7.598   3.020   1.846 -0.6639  2.6541  1.0136
 7603SOL    HW224804   7.681   3.079   1.733 -0.0980  0.4582  0.2320
 7604SOL     OW24805   8.120   2.305   7.516 -0.0358  0.3216 -0.1055
 7604SOL    HW124806   8.036   2.345   7.494  0.5482  0.9330 -1.2850
 7604SOL    HW224807   8.100   2.249   7.591 -1.3457  1.0081  0.0935
 7605SOL     OW24808   3.538   6.731   7.986  0.1824 -0.5020 -0.3464
 7605SOL    HW124809   3.594   6.653   7.983  0.8397 -0.1096  1.0948
 7605SOL    HW224810   3.525   6.754   7.894  1.2739 -1.4030 -0.7462
 7606SOL     OW24811   4.239   2.243   0.021 -0.0840  0.1450  0.3854
 7606SOL    HW124812   4.219   2.235   0.114  1.7532 -1.9632  0.6887
 7606SOL    HW224813   4.244   2.153  -0.010  1.0066  0.7475 -1.3514
 7607SOL     OW24814   3.978   3.673   0.203  0.2675  0.1998  0.1657
 7607SOL    HW124815   3.915   3.602   0.191  0.7397 -0.0446 -1.0333
 7607SOL    HW224816   3.998   3.702   0.114  2.0099  0.1145  0.4986
 7608SOL     OW24817   6.771   7.863   7.746  0.4675  0.5642  0.3806
 7608SOL    HW124818   6.682   7.897   7.751  0.2600 -0.1589  2.4561
 7608SOL    HW224819   6.823   7.923   7.799  0.7256 -0.3957  1.2471
 7609SOL     OW24820   4.467   3.698   8.102  0.0629 -0.0231  0.6492
 7609SOL    HW124821   4.393   3.729   8.050  1.4695  0.9655 -0.8803
 7609SOL    HW224822   4.523   3.775   8.111  2.6363 -1.4957 -1.3828
 7610SOL     OW24823   1.179   6.238   5.372 -0.0011  0.1299 -0.0296
 7610SOL    HW124824   1.083   6.244   5.368 -0.1419 -1.4585  0.2692
 7610SOL    HW224825   1.207   6.327   5.393 -1.4550  0.5035  0.5156
 7611SOL     OW24826   4.229   1.682   2.775 -0.1346  0.1070 -0.0300
 7611SOL    HW124827   4.136   1.668   2.760  0.2776 -0.6049 -2.2140
 7611SOL    HW224828   4.268   1.594   2.776  0.5604  0.4058  0.5551
 7612SOL     OW24829   6.281   1.786   3.538  0.2928 -0.1587  0.1062
 7612SOL    HW124830   6.222   1.712   3.524 -0.9361  0.4751  1.6241
 7612SOL    HW224831   6.361   1.763   3.490 -0.9475 -1.3182 -1.5190
 7613SOL     OW24832   1.639   7.795   8.014 -0.7220  0.2094  0.2070
 7613SOL    HW124833   1.684   7.875   7.984  1.4197 -1.3948 -1.1279
 7613SOL    HW224834   1.568   7.783   7.952  0.6227 -0.3370 -1.3120
 7614SOL     OW24835   5.828   3.745   0.537  0.0071 -0.0595 -0.0578
 7614SOL    HW124836   5.823   3.683   0.464  0.7044  0.5000 -0.5973
 7614SOL    HW224837   5.806   3.830   0.499 -1.2374 -0.0056  0.7437
 7615SOL     OW24838   3.310   5.766   2.687  0.3005 -0.1366  0.3620
 7615SOL    HW124839   3.402   5.792   2.690  0.2666 -0.0711  0.9879
 7615SOL    HW224840   3.285   5.755   2.779  0.1101 -1.6615  0.1616
 7616SOL     OW24841   5.932   1.787   2.144  0.1645 -0.3773 -0.1673
 7616SOL    HW124842   5.965   1.747   2.063  1.3169  0.3470 -0.0802
 7616SOL    HW224843   5.985   1.866   2.155  0.1306 -0.5447  1.3796
 7617SOL     OW24844   6.436   3.215   2.134  0.0020 -0.6781  0.8005
 7617SOL    HW124845   6.389   3.145   2.088 -1.5640  0.3232  0.7956
 7617SOL    HW224846   6.380   3.236   2.209  0.4031  0.6308  0.7459
 7618SOL     OW24847   5.848   1.478   7.872 -0.0695  0.5067  0.0387
 7618SOL    HW124848   5.856   1.422   7.795  1.2853 -0.8487  1.1068
 7618SOL    HW224849   5.826   1.418   7.943 -2.7807  1.9127  0.5295
 7619SOL     OW24850   2.358   0.822   6.704  0.1669 -0.4129 -0.2422
 7619SOL    HW124851   2.339   0.903   6.656  1.4204 -1.2052 -2.2105
 7619SOL    HW224852   2.273   0.796   6.741 -0.9908  0.0983 -2.3437
 7620SOL     OW24853   4.078   4.949   1.293 -0.5813 -0.0664  0.4513
 7620SOL    HW124854   4.016   5.021   1.307  0.2238  2.0063 -4.5108
 7620SOL    HW224855   4.160   4.993   1.271  0.4845 -2.5387 -0.8559
 7621SOL     OW24856   1.504   8.318   1.061 -0.2467  0.0807  0.1303
 7621SOL    HW124857   1.592   8.335   1.028  0.4063  0.6927  2.0837
 7621SOL    HW224858   1.449   8.384   1.017  0.4035  0.2383 -0.4588
 7622SOL     OW24859   5.918   6.558   3.892  0.2618 -0.2791  0.5738
 7622SOL    HW124860   5.871   6.642   3.890 -0.8025 -0.8547 -1.2590
 7622SOL    HW224861   5.897   6.521   3.978  0.5504  1.1958  1.3175
 7623SOL     OW24862   5.713   4.887   4.593  0.1147  0.4347  0.2427
 7623SOL    HW124863   5.731   4.905   4.685 -1.5046 -1.2607  0.9418
 7623SOL    HW224864   5.618   4.897   4.585  0.2024  0.3093 -1.1957
 7624SOL     OW24865   5.200   1.248   2.932  0.4106 -0.1137  0.0695
 7624SOL    HW124866   5.126   1.300   2.901  1.2731  0.7599 -0.5953
 7624SOL    HW224867   5.175   1.157   2.914 -1.1770  0.0152  1.3783
 7625SOL     OW24868   2.498   8.732   7.021  0.3557 -0.0645 -0.1014
 7625SOL    HW124869   2.568   8.684   7.066  0.6493 -0.9658 -1.4607
 7625SOL    HW224870   2.457   8.667   6.964 -0.9194  0.7101 -0.1052
 7626SOL     OW24871   0.488   3.773   0.552  0.2670  0.6744 -0.3662
 7626SOL    HW124872   0.435   3.695   0.567 -0.7441  1.5067  0.5086
 7626SOL    HW224873   0.438   3.824   0.488  1.1670  0.4073 -1.3291
 7627SOL     OW24874   1.690   3.164   7.829 -0.0874  0.0165 -0.7601
 7627SOL    HW124875   1.691   3.078   7.787 -0.4123 -0.2488 -0.2373
 7627SOL    HW224876   1.776   3.201   7.809  0.4410 -0.8419 -0.1667
 7628SOL     OW24877   6.368   7.001   8.355 -0.3283 -0.2022  0.3547
 7628SOL    HW124878   6.292   6.996   8.414  0.1016  0.1568  0.9478
 7628SOL    HW224879   6.334   6.973   8.270 -1.5681  1.6197  0.1837
 7629SOL     OW24880   2.356   5.657   6.430  0.5160 -0.3954  0.1725
 7629SOL    HW124881   2.335   5.578   6.381  0.9066  0.3486 -1.2381
 7629SOL    HW224882   2.319   5.642   6.517  0.1087 -1.8896 -0.2404
 7630SOL     OW24883   8.559   8.506   2.925  0.2948  0.6482 -0.3928
 7630SOL    HW124884   8.475   8.463   2.908  0.4198 -0.3234  1.2813
 7630SOL    HW224885   8.625   8.441   2.903  0.5001  0.1261  1.6111
 7631SOL     OW24886   1.343   3.735   6.988 -0.9306  0.2841  0.3493
 7631SOL    HW124887   1.429   3.770   6.964 -1.0703 -0.1519 -0.8584
 7631SOL    HW224888   1.301   3.714   6.904 -2.0854  0.1669  0.9265
 7632SOL     OW24889   3.197   7.714   5.479  0.3205  0.1918  0.0886
 7632SOL    HW124890   3.222   7.656   5.408 -0.0696  0.3470 -0.1767
 7632SOL    HW224891   3.102   7.720   5.474  0.1169 -1.0362  1.5847
 7633SOL     OW24892   2.100   1.848   3.669 -0.5286 -0.2310 -0.3328
 7633SOL    HW124893   2.067   1.813   3.587 -2.8475  0.2914  0.2827
 7633SOL    HW224894   2.054   1.798   3.737  2.9466 -2.2014  0.8124
 7634SOL     OW24895   6.031   3.258   0.345  0.1371 -0.3502 -0.1466
 7634SOL    HW124896   6.017   3.190   0.410  2.5487 -0.6624  0.1524
 7634SOL    HW224897   6.050   3.337   0.396  1.1125 -0.3800 -0.4303
 7635SOL     OW24898   7.885   0.537   5.259 -0.4930  0.5951 -0.1315
 7635SOL    HW124899   7.940   0.592   5.203 -0.3475  0.7606  0.1706
 7635SOL    HW224900   7.871   0.589   5.338  1.5249 -0.6413  1.1342
 7636SOL     OW24901   0.914   2.075   2.100  0.2276 -0.2520  0.3509
 7636SOL    HW124902   0.979   2.145   2.098  1.0160 -0.9655  0.7553
 7636SOL    HW224903   0.841   2.113   2.149  0.6246  0.2972  0.5346
 7637SOL     OW24904   8.709   7.726   8.492  0.0364 -0.0453  0.1069
 7637SOL    HW124905   8.630   7.778   8.502  1.0881  1.6272  0.1008
 7637SOL    HW224906   8.706   7.694   8.402 -1.5930 -1.7066  0.7086
 7638SOL     OW24907   4.261   5.803   5.347 -0.0437 -0.1901  0.1069
 7638SOL    HW124908   4.310   5.859   5.287 -0.4413 -1.3120 -1.3039
 7638SOL    HW224909   4.193   5.860   5.383  0.4564  0.6073 -0.1844
 7639SOL     OW24910   8.601   0.626   5.245  0.5468  1.0111 -0.5006
 7639SOL    HW124911   8.696   0.638   5.245  0.6093  0.5337  0.1554
 7639SOL    HW224912   8.576   0.624   5.338 -0.3598  3.0467 -0.6375
 7640SOL     OW24913   6.506   0.416   3.386 -0.6001  0.1315 -0.2731
 7640SOL    HW124914   6.571   0.454   3.445 -0.7778 -1.0411  0.7297
 7640SOL    HW224915   6.437   0.384   3.444 -0.9116 -0.7910 -1.1315
 7641SOL     OW24916   1.510   8.453   0.438 -0.0968  0.3219 -0.1010
 7641SOL    HW124917   1.419   8.452   0.408 -0.2697 -2.9644  0.1417
 7641SOL    HW224918   1.517   8.377   0.496  2.4829  1.3175  1.0602
 7642SOL     OW24919   7.304   7.652   8.561  0.4216  0.1712 -0.0547
 7642SOL    HW124920   7.294   7.703   8.481  1.7076  0.5654  0.0023
 7642SOL    HW224921   7.337   7.715   8.625  1.4753 -0.5873  0.1832
 7643SOL     OW24922   4.945   6.139   4.620  0.1540  0.3899 -0.2449
 7643SOL    HW124923   4.919   6.098   4.703 -0.8433  1.4278 -0.0100
 7643SOL    HW224924   5.038   6.157   4.630  0.5275 -1.4033 -0.1964
 7644SOL     OW24925   2.651   5.314   4.258  0.2579  0.5627  0.6772
 7644SOL    HW124926   2.716   5.332   4.325 -0.4806 -0.6697  1.7643
 7644SOL    HW224927   2.592   5.389   4.260  0.7768  0.9681  0.7475
 7645SOL     OW24928   7.694   4.859   0.169  0.2089 -0.2928 -0.4182
 7645SOL    HW124929   7.650   4.913   0.234  1.9200  1.5208 -0.6806
 7645SOL    HW224930   7.630   4.850   0.098 -0.8335 -0.3853  0.4972
 7646SOL     OW24931   1.757   8.749   4.565 -0.3745 -0.1905 -0.1527
 7646SOL    HW124932   1.800   8.667   4.592  0.9591  0.9055  1.2076
 7646SOL    HW224933   1.805   8.776   4.487  0.9617  0.5989  0.8902
 7647SOL     OW24934   5.462   0.151   0.889 -0.3824 -0.4910  0.6402
 7647SOL    HW124935   5.493   0.198   0.967  1.1430  2.3163 -1.4681
 7647SOL    HW224936   5.540   0.109   0.854 -0.8120 -0.7735  0.0068
 7648SOL     OW24937   0.055   3.339   0.657  0.5518 -0.0262  0.4979
 7648SOL    HW124938   0.112   3.365   0.730  1.5787 -0.0958 -0.2495
 7648SOL    HW224939   0.041   3.420   0.608  0.5637 -0.1434  0.3021
 7649SOL     OW24940   5.031   4.549   7.962 -0.3568 -0.2890 -0.0210
 7649SOL    HW124941   5.068   4.471   7.919  0.4104  0.1173 -0.1197
 7649SOL    HW224942   5.107   4.596   7.995 -0.8789 -0.0425  0.8534
 7650SOL     OW24943   6.167   2.502   7.310 -0.1290 -0.5026  0.1904
 7650SOL    HW124944   6.127   2.488   7.396  0.0508  0.9728  0.5351
 7650SOL    HW224945   6.242   2.559   7.327  0.3132 -0.7425 -0.8603
 7651SOL     OW24946   2.343   1.573   7.081 -0.5867  0.3329 -0.4963
 7651SOL    HW124947   2.330   1.485   7.044 -0.0426 -0.0354  0.1759
 7651SOL    HW224948   2.337   1.631   7.005 -1.7187 -0.2046 -0.8400
 7652SOL     OW24949   6.348   6.524   2.223 -0.0482  0.1431  0.2509
 7652SOL    HW124950   6.382   6.594   2.169  2.9382 -0.7126  0.8345
 7652SOL    HW224951   6.387   6.444   2.187  0.2797 -0.6827  2.2562
 7653SOL     OW24952   2.422   1.588   1.439  0.2345  0.6893 -0.7865
 7653SOL    HW124953   2.396   1.496   1.425  0.9473  0.6878 -2.3810
 7653SOL    HW224954   2.393   1.633   1.359  1.9900  1.3643 -1.0734
 7654SOL     OW24955   1.914   6.208   0.176 -0.1151  0.5648  0.5055
 7654SOL    HW124956   1.878   6.191   0.263  0.2248 -0.7824  0.4088
 7654SOL    HW224957   1.862   6.281   0.142 -1.9675 -0.5482  0.8214
 7655SOL     OW24958   7.682   7.957   6.398 -0.3886  0.8578 -0.4073
 7655SOL    HW124959   7.734   7.922   6.325 -0.4939  0.6606 -0.3901
 7655SOL    HW224960   7.737   7.942   6.476 -0.5912  0.3794 -0.3505
 7656SOL     OW24961   1.822   1.086   6.027 -0.1998 -0.5392 -0.1178
 7656SOL    HW124962   1.882   1.106   5.956 -0.1447 -1.2928 -0.2891
 7656SOL    HW224963   1.872   1.028   6.085  1.0309  2.6744  2.3916
 7657SOL     OW24964   6.683   4.279   2.826  0.3392  0.0667 -0.5429
 7657SOL    HW124965   6.774   4.249   2.825  0.1124 -0.6577 -2.0519
 7657SOL    HW224966   6.688   4.372   2.802  0.6997  0.0612 -0.4900
 7658SOL     OW24967   1.835   0.303   7.773  0.0576  0.0770 -0.2947
 7658SOL    HW124968   1.847   0.209   7.789 -0.1251 -0.1020 -1.1614
 7658SOL    HW224969   1.854   0.344   7.858 -1.0166 -0.8298  0.4124
 7659SOL     OW24970   2.331   3.359   0.738 -0.4309  0.7628 -0.2666
 7659SOL    HW124971   2.412   3.352   0.790 -0.7335 -0.6147  0.0628
 7659SOL    HW224972   2.361   3.355   0.647 -0.1818 -0.9132 -0.1397
 7660SOL     OW24973   7.903   4.019   6.161  0.1568 -0.2638  0.2809
 7660SOL    HW124974   7.903   4.093   6.100 -0.8716 -1.1275 -0.8132
 7660SOL    HW224975   7.871   4.056   6.243  0.1723  0.6165 -0.0909
 7661SOL     OW24976   1.773   7.747   4.337 -0.2623 -0.2272 -0.3444
 7661SOL    HW124977   1.723   7.684   4.389  0.3786 -0.2683  0.2244
 7661SOL    HW224978   1.746   7.833   4.370  0.8188 -0.2714  0.7015
 7662SOL     OW24979   8.249   6.918   1.156  0.1757  0.2074 -0.4658
 7662SOL    HW124980   8.278   6.991   1.211 -1.6191  2.7621 -2.6025
 7662SOL    HW224981   8.153   6.925   1.155 -0.0002 -1.5808 -1.5432
 7663SOL     OW24982   6.017   5.378   2.417 -0.0665 -0.6709  0.1397
 7663SOL    HW124983   6.082   5.382   2.488  1.6623  1.6660 -1.4372
 7663SOL    HW224984   5.955   5.311   2.446  1.9312 -1.6183  2.6770
 7664SOL     OW24985   4.815   0.007   7.600 -0.0678  0.5761 -0.4363
 7664SOL    HW124986   4.822   0.006   7.505  1.7312  1.1968 -0.3379
 7664SOL    HW224987   4.903  -0.015   7.631 -0.6631  0.2232  1.0877
 7665SOL     OW24988   2.204   1.076   1.368 -0.3097 -0.2943  0.1406
 7665SOL    HW124989   2.176   0.998   1.417 -0.7923  0.2552  0.7601
 7665SOL    HW224990   2.197   1.050   1.276  0.2719 -1.2293  0.3463
 7666SOL     OW24991   7.751   1.033   5.633 -0.0064  0.2033 -0.4504
 7666SOL    HW124992   7.833   1.044   5.680 -1.0196 -1.5618  1.9765
 7666SOL    HW224993   7.764   0.952   5.582 -0.6037 -0.8428  0.9867
 7667SOL     OW24994   2.910   8.879   7.705 -0.2585  0.0386  0.3969
 7667SOL    HW124995   2.839   8.818   7.723  0.2724 -0.8300 -0.3109
 7667SOL    HW224996   2.915   8.935   7.782 -0.9927 -0.5955  0.9133
 7668SOL     OW24997   3.436   1.101   1.970  0.0012  0.4321 -0.0096
 7668SOL    HW124998   3.345   1.072   1.978  0.3573 -0.6766  0.3350
 7668SOL    HW224999   3.469   1.103   2.060  0.2210  1.1891 -0.0980
 7669SOL     OW25000   5.432   5.926   8.856 -0.0890  0.2017  0.1349
 7669SOL    HW125001   5.360   5.939   8.917 -0.7195  0.8611 -0.7276
 7669SOL    HW225002   5.475   6.012   8.851  2.5721 -0.7894  2.7998
 7670SOL     OW25003   6.862   7.764   0.826 -0.3300 -0.1215  0.3638
 7670SOL    HW125004   6.933   7.702   0.811 -0.6099 -0.1044 -1.2472
 7670SOL    HW225005   6.792   7.735   0.767 -1.3263  0.3866  1.2632
 7671SOL     OW25006   4.137   4.482   3.775  0.3025 -0.3080  0.5714
 7671SOL    HW125007   4.140   4.494   3.870  2.6654  0.7397  0.4461
 7671SOL    HW225008   4.198   4.410   3.758 -0.1211 -0.5075 -0.1717
 7672SOL     OW25009   8.861   2.704   1.302 -0.0192 -0.4005  0.4262
 7672SOL    HW125010   8.783   2.683   1.251 -0.7000 -1.5429  1.8685
 7672SOL    HW225011   8.856   2.798   1.316 -1.4296 -0.5283  0.9228
 7673SOL     OW25012   1.334   7.851   2.890  0.8382 -0.4192  0.0552
 7673SOL    HW125013   1.400   7.864   2.822  2.2125 -0.4066  1.3443
 7673SOL    HW225014   1.353   7.919   2.955 -0.4881 -0.3855  0.4480
 7674SOL     OW25015   6.024   5.670   5.239  0.4791  0.5158 -0.8172
 7674SOL    HW125016   6.049   5.635   5.154 -0.8336  0.9708 -1.4002
 7674SOL    HW225017   6.042   5.764   5.233  0.1727  0.5855 -0.6620
 7675SOL     OW25018   5.098   7.524   4.014 -0.1727 -0.3271 -0.0574
 7675SOL    HW125019   5.073   7.462   4.083  0.3920  0.2489  0.6903
 7675SOL    HW225020   5.164   7.580   4.056 -1.4219  1.4689 -0.3676
 7676SOL     OW25021   2.897   2.580   8.489 -0.0189 -0.0081 -0.2705
 7676SOL    HW125022   2.916   2.554   8.399 -0.7497 -3.9625  0.5360
 7676SOL    HW225023   2.814   2.538   8.509 -0.2729  1.4268  2.0199
 7677SOL     OW25024   0.431   3.753   1.744  0.6741  0.1828 -0.5397
 7677SOL    HW125025   0.504   3.814   1.756  0.6734 -0.1023  1.0319
 7677SOL    HW225026   0.392   3.744   1.831 -0.7710 -0.2720 -1.2024
 7678SOL     OW25027   2.933   6.125   7.975 -0.3602 -0.6140  0.8651
 7678SOL    HW125028   2.906   6.217   7.984  1.1487 -0.1580  1.0036
 7678SOL    HW225029   2.984   6.122   7.894 -3.0073 -2.0333 -0.8839
 7679SOL     OW25030   4.324   6.634   5.043  0.1997 -0.0481 -0.5046
 7679SOL    HW125031   4.281   6.713   5.011 -0.2156 -0.2169 -0.3738
 7679SOL    HW225032   4.415   6.659   5.055  0.4582 -0.0839 -2.1795
 7680SOL     OW25033   5.606   3.421   4.934 -0.6043  0.2627 -0.4176
 7680SOL    HW125034   5.695   3.386   4.938 -0.5119  0.4300 -0.8567
 7680SOL    HW225035   5.572   3.390   4.849 -0.3454  1.6057 -1.0385
 7681SOL     OW25036   4.091   4.556   7.693 -0.2310  0.1138  0.1931
 7681SOL    HW125037   4.118   4.466   7.713 -0.7618 -0.1985 -0.4577
 7681SOL    HW225038   4.165   4.593   7.646 -1.0233 -0.8608 -1.9366
 7682SOL     OW25039   6.524   8.241   6.275 -0.5240 -0.0104 -0.1210
 7682SOL    HW125040   6.569   8.235   6.359 -1.4447  0.2395  0.3938
 7682SOL    HW225041   6.593   8.268   6.214 -0.2441  1.8483  0.9317
 7683SOL     OW25042   3.063   0.879   0.750 -0.1735  0.5687 -0.4989
 7683SOL    HW125043   3.065   0.919   0.837 -0.2115 -0.0991 -0.1826
 7683SOL    HW225044   2.976   0.902   0.716 -0.5047  0.0885  0.0030
 7684SOL     OW25045   5.757   0.696   5.943  0.5669 -0.1761 -0.2694
 7684SOL    HW125046   5.687   0.740   5.895 -0.2528 -1.2115 -0.0624
 7684SOL    HW225047   5.734   0.603   5.940  3.3201 -0.9360 -2.4903
 7685SOL     OW25048   0.962   3.037   4.635 -0.1991 -0.0054  0.4613
 7685SOL    HW125049   0.908   3.075   4.704 -1.5024 -2.0732  0.6656
 7685SOL    HW225050   1.050   3.069   4.653 -0.9745  1.7503  1.3953
 7686SOL     OW25051   7.861   6.275   0.928  0.0809  0.0960 -0.0757
 7686SOL    HW125052   7.955   6.296   0.937  0.2073 -0.4064 -0.2012
 7686SOL    HW225053   7.819   6.360   0.918 -0.0808  0.8641  4.8406
 7687SOL     OW25054   1.460   5.989   3.567  0.0632 -0.6342  0.4436
 7687SOL    HW125055   1.392   6.051   3.543  1.7540  1.0952 -0.1725
 7687SOL    HW225056   1.415   5.905   3.576 -2.4263  0.7476  1.9165
 7688SOL     OW25057   5.990   5.844   3.973 -0.8364 -0.4841 -0.2822
 7688SOL    HW125058   5.916   5.902   3.990  0.1660  0.9833 -0.7442
 7688SOL    HW225059   5.980   5.818   3.881 -0.3722  0.3583 -0.5823
 7689SOL     OW25060   1.918   4.968   1.886  0.4704 -0.4200  0.5574
 7689SOL    HW125061   1.952   5.005   1.967  1.3312 -1.0594  0.5019
 7689SOL    HW225062   1.962   4.884   1.877  0.9281 -0.0625 -0.9207
 7690SOL     OW25063   8.360   6.247   7.253  0.0099  0.1693 -0.5541
 7690SOL    HW125064   8.337   6.227   7.344 -1.2909  0.8504 -0.7204
 7690SOL    HW225065   8.422   6.320   7.260 -1.4618  1.4427 -0.2447
 7691SOL     OW25066   0.399   4.626   2.553 -0.0562  0.1499 -0.1271
 7691SOL    HW125067   0.402   4.721   2.543 -1.4111  0.1711 -0.5866
 7691SOL    HW225068   0.340   4.596   2.484 -0.9173 -0.8539  0.9732
 7692SOL     OW25069   6.749   0.100   2.860 -0.7166 -0.2958 -1.1209
 7692SOL    HW125070   6.686   0.167   2.833  0.1235  0.5574 -0.9695
 7692SOL    HW225071   6.774   0.057   2.778 -2.9644 -2.0210 -1.0262
 7693SOL     OW25072   8.578   1.217   4.488 -0.1022 -0.0316 -0.5898
 7693SOL    HW125073   8.628   1.254   4.415  0.5350 -1.6161 -1.0189
 7693SOL    HW225074   8.637   1.223   4.563 -0.2271  0.3698 -0.5266
 7694SOL     OW25075   8.358   5.053   8.017 -0.4127  0.2457 -0.0192
 7694SOL    HW125076   8.272   5.024   7.988 -0.0124 -1.1423  0.1024
 7694SOL    HW225077   8.392   5.105   7.944 -1.4147  0.9524  0.0097
 7695SOL     OW25078   8.665   6.780   3.672  0.3757 -0.1025 -0.0255
 7695SOL    HW125079   8.585   6.816   3.710  0.8918  0.1549  0.8442
 7695SOL    HW225080   8.735   6.838   3.703  1.2903 -2.0042  1.7094
 7696SOL     OW25081   7.809   8.225   4.186 -0.1271 -0.0780 -0.1092
 7696SOL    HW125082   7.727   8.207   4.139 -0.8638  0.2598  0.9997
 7696SOL    HW225083   7.863   8.148   4.169 -0.8667 -0.5397 -0.4635
 7697SOL     OW25084   0.309   1.743   6.330 -0.2263  0.5047 -0.4887
 7697SOL    HW125085   0.353   1.734   6.246 -2.1218  1.4138 -1.6463
 7697SOL    HW225086   0.256   1.822   6.321  0.1545  1.1158  1.8828
 7698SOL     OW25087   2.747   2.223   8.454  0.4673  0.8175 -0.6895
 7698SOL    HW125088   2.716   2.160   8.390  0.0250  0.8790 -0.5393
 7698SOL    HW225089   2.785   2.169   8.524 -1.3368  0.6220  0.1976
 7699SOL     OW25090   1.327   1.498   0.192 -0.0121 -0.1981  0.1188
 7699SOL    HW125091   1.266   1.558   0.149  0.1748 -0.7331 -0.9208
 7699SOL    HW225092   1.413   1.526   0.163 -0.0153 -2.3686 -2.3287
 7700SOL     OW25093   7.276   4.731   6.652 -0.5203 -0.2693 -0.0535
 7700SOL    HW125094   7.239   4.650   6.616 -0.2111 -0.0855 -0.7984
 7700SOL    HW225095   7.201   4.776   6.691 -0.8582 -0.4876 -0.4434
 7701SOL     OW25096   3.419   3.639   0.345  0.2815 -0.2923  0.4129
 7701SOL    HW125097   3.371   3.560   0.371 -0.4701 -0.1441 -0.4665
 7701SOL    HW225098   3.383   3.707   0.402 -0.5692 -0.1864 -0.2297
 7702SOL     OW25099   3.519   2.983   4.214  0.0381 -0.3922 -0.4427
 7702SOL    HW125100   3.544   2.921   4.283  1.1280 -0.9944 -1.3381
 7702SOL    HW225101   3.443   2.943   4.172  0.6098 -1.0605 -0.8791
 7703SOL     OW25102   4.486   8.227   3.113 -0.2624 -0.3856  0.4517
 7703SOL    HW125103   4.496   8.279   3.033  1.4345  0.0748  0.9318
 7703SOL    HW225104   4.411   8.267   3.157  0.5576  1.2219  0.4579
 7704SOL     OW25105   5.572   5.507   7.441 -0.0951  0.3114  0.2235
 7704SOL    HW125106   5.611   5.429   7.401 -0.4294 -0.2000  0.8930
 7704SOL    HW225107   5.560   5.567   7.367 -0.1364 -0.3887 -0.3520
 7705SOL     OW25108   0.538   1.704   7.579  0.2155 -0.5347 -0.0901
 7705SOL    HW125109   0.524   1.668   7.491  1.5273 -0.7315 -0.2320
 7705SOL    HW225110   0.453   1.741   7.603 -0.7638 -2.3523 -0.5614
 7706SOL     OW25111   1.466   5.645   5.415  0.7281  0.1667  0.2184
 7706SOL    HW125112   1.441   5.733   5.444  2.8098  0.2677  1.9325
 7706SOL    HW225113   1.481   5.655   5.321  0.7147  1.6036  0.3433
 7707SOL     OW25114   5.507   1.394   1.723  0.1713  0.4572 -0.2798
 7707SOL    HW125115   5.425   1.346   1.714  0.5585 -0.4302  0.7183
 7707SOL    HW225116   5.556   1.372   1.643  0.6977 -1.5723  0.5340
 7708SOL     OW25117   3.102   4.890   6.456 -0.2886  0.1041  0.0643
 7708SOL    HW125118   3.039   4.837   6.505  0.7637  0.4351  1.8627
 7708SOL    HW225119   3.083   4.980   6.482 -1.2358  0.5484 -1.9959
 7709SOL     OW25120   7.284   6.697   5.780 -0.5835 -0.6835  0.2171
 7709SOL    HW125121   7.199   6.728   5.750 -0.0768 -0.5069 -1.1088
 7709SOL    HW225122   7.346   6.763   5.747  0.3134 -2.0759 -1.0083
 7710SOL     OW25123   7.625   3.247   8.811 -0.2148  0.9025  0.1707
 7710SOL    HW125124   7.652   3.156   8.811 -0.5184  0.8007 -0.8755
 7710SOL    HW225125   7.685   3.291   8.751 -0.6617  1.1948 -0.0751
 7711SOL     OW25126   3.743   0.524   7.203  0.4836 -0.3559 -0.4425
 7711SOL    HW125127   3.679   0.469   7.157  0.3467 -0.1468 -0.5057
 7711SOL    HW225128   3.731   0.611   7.166 -1.1200  0.3009  1.4315
 7712SOL     OW25129   0.264   6.343   2.249  0.2614  0.1604 -0.3223
 7712SOL    HW125130   0.223   6.309   2.169 -1.5827  3.5736 -1.0355
 7712SOL    HW225131   0.341   6.392   2.218  2.5845 -2.5688  0.6262
 7713SOL     OW25132   5.194   5.927   0.574  0.1101 -0.3214 -0.3531
 7713SOL    HW125133   5.126   5.903   0.511 -1.3110 -0.3355  1.1214
 7713SOL    HW225134   5.155   5.998   0.626  1.5415  0.2398 -0.0040
 7714SOL     OW25135   7.730   2.191   2.440 -0.2183  0.0896 -0.2984
 7714SOL    HW125136   7.819   2.199   2.405 -0.8181  0.7940 -1.7583
 7714SOL    HW225137   7.736   2.224   2.529  0.9640  0.2243 -0.4073
 7715SOL     OW25138   4.589   6.815   4.906  0.2825 -0.7269  0.1418
 7715SOL    HW125139   4.667   6.800   4.853  0.3240 -0.3941  0.1085
 7715SOL    HW225140   4.606   6.768   4.988  0.2526 -1.1710 -0.1023
 7716SOL     OW25141   4.667   6.485   2.115 -0.1681  0.2207 -0.1073
 7716SOL    HW125142   4.755   6.523   2.111 -1.0840  2.4736 -3.2068
 7716SOL    HW225143   4.680   6.394   2.089  1.2620  0.6254 -0.9691
 7717SOL     OW25144   4.315   7.410   4.468 -0.2414 -0.1598 -0.2412
 7717SOL    HW125145   4.260   7.356   4.525  0.5355 -3.0424 -2.0739
 7717SOL    HW225146   4.400   7.414   4.513 -0.5616  0.4343  0.3479
 7718SOL     OW25147   2.053   5.833   1.379  0.1521 -0.0830  0.4843
 7718SOL    HW125148   2.065   5.818   1.473 -0.8674  0.5804  0.7357
 7718SOL    HW225149   2.093   5.918   1.363 -1.0116  0.5248  0.6476
 7719SOL     OW25150   1.930   2.808   4.750 -0.3449  0.3657  0.2114
 7719SOL    HW125151   1.887   2.884   4.790  0.3669  0.1541  1.4375
 7719SOL    HW225152   1.921   2.738   4.815  2.5936  0.5492  0.9688
 7720SOL     OW25153   5.086   5.649   6.963 -0.2496  0.0803  0.6313
 7720SOL    HW125154   5.067   5.559   6.937 -0.9638  0.5094 -0.3917
 7720SOL    HW225155   5.161   5.642   7.022 -1.5733 -1.3818  2.2404
 7721SOL     OW25156   1.741   7.843   6.916 -0.4398 -0.7697 -0.1934
 7721SOL    HW125157   1.766   7.895   6.992  0.8330 -1.3978 -0.1366
 7721SOL    HW225158   1.648   7.826   6.927 -0.3086 -0.7146  1.1463
 7722SOL     OW25159   5.886   5.346   3.015  0.1015  0.1245  0.0837
 7722SOL    HW125160   5.872   5.270   2.958 -0.1152 -0.6633  1.1527
 7722SOL    HW225161   5.814   5.406   2.993 -1.8762 -1.5136  1.6620
 7723SOL     OW25162   3.425   0.930   8.145  0.4951 -0.5011  0.1801
 7723SOL    HW125163   3.507   0.898   8.182 -0.1743  1.4950  3.8661
 7723SOL    HW225164   3.362   0.860   8.160  0.4984 -0.1619  2.0040
 7724SOL     OW25165   5.181   8.837   1.936 -0.2036  0.1833 -0.1719
 7724SOL    HW125166   5.102   8.785   1.921 -0.8833  0.7141  1.3306
 7724SOL    HW225167   5.172   8.867   2.027  1.8021  0.1488  0.0658
 7725SOL     OW25168   3.977   7.566   7.215 -0.8697  0.0678  0.1203
 7725SOL    HW125169   4.071   7.551   7.214 -0.9894 -0.8445  0.9393
 7725SOL    HW225170   3.967   7.660   7.226 -0.0129 -0.1133  3.3804
 7726SOL     OW25171   4.522   2.574   0.292 -0.4934 -0.5082 -0.1530
 7726SOL    HW125172   4.448   2.605   0.345 -0.8856 -1.2534 -0.2421
 7726SOL    HW225173   4.494   2.487   0.261  0.3306 -0.6996 -0.3784
 7727SOL     OW25174   6.802   4.600   4.797  0.2294 -0.2598  0.2881
 7727SOL    HW125175   6.834   4.689   4.779  0.6771 -0.8116 -1.9107
 7727SOL    HW225176   6.732   4.613   4.861  0.4559  1.6469  0.2233
 7728SOL     OW25177   1.092   6.909   2.327 -0.6068 -0.2320 -0.1054
 7728SOL    HW125178   1.187   6.902   2.325 -0.5711  0.3553 -0.8658
 7728SOL    HW225179   1.075   6.988   2.378 -0.7004 -0.4847  0.2597
 7729SOL     OW25180   1.981   5.448   0.991 -0.4393  0.4351  0.1022
 7729SOL    HW125181   1.945   5.486   0.910  0.1512  0.7243 -0.0296
 7729SOL    HW225182   1.938   5.497   1.061  1.2781  2.3252 -0.0688
 7730SOL     OW25183   6.936   6.647   6.977 -0.1473 -0.8579  0.7525
 7730SOL    HW125184   6.886   6.660   7.058 -0.5894 -0.4891  0.4175
 7730SOL    HW225185   7.027   6.642   7.007  0.1472  2.9197  0.9876
 7731SOL     OW25186   0.249   3.355   8.841  0.1280  0.1690 -0.4076
 7731SOL    HW125187   0.249   3.281   8.780  0.2589  1.0406 -1.5098
 7731SOL    HW225188   0.278   3.318   8.924 -1.0865 -1.2730 -0.5780
 7732SOL     OW25189   0.768   3.973   4.716 -0.5581  0.7925 -0.0659
 7732SOL    HW125190   0.717   4.002   4.792 -0.4950 -3.0078  1.6590
 7732SOL    HW225191   0.705   3.972   4.644 -1.1368  2.5496  0.3651
 7733SOL     OW25192   6.046   5.929   8.382 -0.6003  0.4443  0.0412
 7733SOL    HW125193   5.980   5.873   8.422 -1.4714  1.4023 -0.0068
 7733SOL    HW225194   6.086   5.875   8.314  1.3234 -1.4316  2.4874
 7734SOL     OW25195   0.724   6.434   6.992 -0.1336 -0.4562 -0.4351
 7734SOL    HW125196   0.657   6.458   7.056 -1.1210 -1.6302 -0.9683
 7734SOL    HW225197   0.780   6.371   7.037 -0.7043 -1.1210 -0.6172
 7735SOL     OW25198   4.125   4.247   4.525  0.2367  0.0661 -0.0736
 7735SOL    HW125199   4.199   4.187   4.516  1.4586  1.4458  0.3379
 7735SOL    HW225200   4.139   4.290   4.609 -1.3544 -0.0271  0.2704
 7736SOL     OW25201   5.517   7.318   6.636  0.0500 -0.0088 -0.2475
 7736SOL    HW125202   5.546   7.360   6.716 -0.3542 -1.5008  0.7274
 7736SOL    HW225203   5.493   7.390   6.578  0.3387  1.0996  0.9724
 7737SOL     OW25204   2.164   7.922   1.409  0.0586 -0.0968  0.5242
 7737SOL    HW125205   2.130   7.982   1.475 -0.7976 -0.7815  0.7244
 7737SOL    HW225206   2.087   7.893   1.360  0.8111  1.7435 -1.9917
 7738SOL     OW25207   2.248   8.238   7.725 -0.8083  0.1660 -0.1507
 7738SOL    HW125208   2.255   8.265   7.816 -1.6824  0.6604 -0.2181
 7738SOL    HW225209   2.231   8.320   7.677 -0.1975 -0.0618 -0.7781
 7739SOL     OW25210   4.478   5.727   7.464  0.1180 -0.5409 -0.6914
 7739SOL    HW125211   4.419   5.652   7.456 -1.2048  0.3828  0.0826
 7739SOL    HW225212   4.443   5.778   7.537  1.8509  0.0873 -0.2437
 7740SOL     OW25213   7.583   6.844   7.303 -0.8347  0.5768  0.1821
 7740SOL    HW125214   7.556   6.900   7.377  0.9386  2.2410 -0.3508
 7740SOL    HW225215   7.661   6.799   7.334  1.1800  2.8573 -1.2407
 7741SOL     OW25216   6.919   8.815   8.703 -0.1535 -0.3858 -0.7413
 7741SOL    HW125217   6.986   8.752   8.677 -0.9667 -2.2872  1.3772
 7741SOL    HW225218   6.841   8.788   8.656 -0.0988  0.1090 -1.1188
 7742SOL     OW25219   5.009   3.005   8.640 -0.0837 -0.3506 -0.6334
 7742SOL    HW125220   4.920   2.984   8.610 -0.3433 -0.5826  0.2738
 7742SOL    HW225221   5.034   2.930   8.695  0.2657  0.1889 -0.0474
 7743SOL     OW25222   4.440   2.494   6.491  0.4025  0.2335  0.3706
 7743SOL    HW125223   4.529   2.475   6.520  0.2837  0.3465  0.8251
 7743SOL    HW225224   4.387   2.483   6.570  0.2900  2.1530  0.6112
 7744SOL     OW25225   6.367   0.672   5.519  0.1943  0.0958 -0.0147
 7744SOL    HW125226   6.333   0.746   5.469  1.4467  0.5330 -0.2600
 7744SOL    HW225227   6.414   0.619   5.455 -0.6863 -0.9250  0.1614
 7745SOL     OW25228   4.243   0.353   1.887  0.0096 -1.1623 -0.0071
 7745SOL    HW125229   4.184   0.285   1.855 -1.2396 -0.1648  0.1240
 7745SOL    HW225230   4.299   0.373   1.812 -0.2809 -1.6342 -0.3530
 7746SOL     OW25231   5.478   2.237   0.454 -0.1851 -0.1422  0.9434
 7746SOL    HW125232   5.394   2.192   0.442 -0.9730  0.5312  3.2865
 7746SOL    HW225233   5.539   2.167   0.477 -0.8573 -0.3492  2.2331
 7747SOL     OW25234   2.530   7.928   3.858 -0.0576 -0.4673 -0.3951
 7747SOL    HW125235   2.485   7.951   3.776 -0.8062 -1.3175 -0.2406
 7747SOL    HW225236   2.478   7.856   3.894  1.0431 -1.0072  0.1546
 7748SOL     OW25237   5.581   8.827   8.524 -0.0100 -0.4393  0.1480
 7748SOL    HW125238   5.568   8.901   8.584 -2.0505  1.3907 -2.2812
 7748SOL    HW225239   5.494   8.786   8.518  0.2482 -0.8378 -1.1754
 7749SOL     OW25240   8.435   5.150   6.225  0.2441  0.3540  0.2185
 7749SOL    HW125241   8.443   5.152   6.320  3.7911 -0.0308  0.0447
 7749SOL    HW225242   8.397   5.235   6.203  0.8047  1.0802  1.8986
 7750SOL     OW25243   1.309   7.511   7.816  0.1792  0.5178 -0.1581
 7750SOL    HW125244   1.233   7.562   7.789 -1.5786 -2.3422 -1.0281
 7750SOL    HW225245   1.294   7.424   7.780  3.0182 -0.6631  1.1897
 7751SOL     OW25246   8.480   7.423   5.298  0.2732  0.1053  0.2465
 7751SOL    HW125247   8.517   7.346   5.254 -2.3539 -1.3159  0.3147
 7751SOL    HW225248   8.497   7.496   5.238 -1.8064 -1.4715 -2.4612
 7752SOL     OW25249   8.517   5.482   2.838 -0.0894 -0.0982 -0.4555
 7752SOL    HW125250   8.459   5.535   2.893  0.2518  0.0610 -0.2479
 7752SOL    HW225251   8.583   5.449   2.898  1.0421  1.1257 -0.9738
 7753SOL     OW25252   4.575   3.405   4.121  0.1348  0.3451 -0.6464
 7753SOL    HW125253   4.633   3.429   4.049  1.1101  0.1587  0.0524
 7753SOL    HW225254   4.498   3.367   4.079  1.1120 -0.6903 -1.5735
 7754SOL     OW25255   0.969   3.848   3.016  0.7072  0.1450  0.1948
 7754SOL    HW125256   0.995   3.756   3.020 -0.1430 -0.1755 -1.2381
 7754SOL    HW225257   0.885   3.850   3.062  2.5620  1.0287  4.0355
 7755SOL     OW25258   5.219   8.873   4.035  0.1166  0.0864 -0.0580
 7755SOL    HW125259   5.262   8.839   3.957  2.6138  2.2105  0.2497
 7755SOL    HW225260   5.172   8.950   4.005 -0.2859 -0.0282  0.2736
 7756SOL     OW25261   4.105   0.787   5.163 -0.0598  0.5639 -0.1666
 7756SOL    HW125262   4.017   0.751   5.150  1.1961 -1.9554 -3.1084
 7756SOL    HW225263   4.115   0.850   5.092  1.2489 -1.0312 -1.4997
 7757SOL     OW25264   0.897   2.793   7.322  0.4475 -0.0544  0.2963
 7757SOL    HW125265   0.980   2.819   7.362  0.3385  0.0044  0.4843
 7757SOL    HW225266   0.879   2.706   7.359 -0.4459  0.6422  1.6117
 7758SOL     OW25267   5.140   7.636   7.192 -0.0270  0.0173 -0.0037
 7758SOL    HW125268   5.129   7.704   7.258 -0.9398 -0.5334  0.4424
 7758SOL    HW225269   5.188   7.678   7.121  0.5881  0.7472  0.8182
 7759SOL     OW25270   7.577   6.341   3.601  0.0233 -0.4316 -0.1535
 7759SOL    HW125271   7.551   6.400   3.671  0.4853 -1.6538  1.0872
 7759SOL    HW225272   7.672   6.335   3.609  0.1062 -0.4165 -1.0327
 7760SOL     OW25273   5.320   1.120   4.651  0.4724  0.4739  0.3112
 7760SOL    HW125274   5.370   1.052   4.695 -0.2871 -0.3132  0.0005
 7760SOL    HW225275   5.334   1.104   4.558 -1.5302 -0.7724  0.1377
 7761SOL     OW25276   6.154   8.095   7.643 -0.0292  0.4055 -0.2844
 7761SOL    HW125277   6.170   8.097   7.738 -0.2570  0.2702 -0.2438
 7761SOL    HW225278   6.183   8.181   7.613 -2.0767  1.3480  0.2445
 7762SOL     OW25279   5.794   2.386   5.705  0.4597 -0.9323  0.1736
 7762SOL    HW125280   5.719   2.440   5.679  0.5190 -1.4355 -1.1062
 7762SOL    HW225281   5.844   2.442   5.765 -0.1324 -0.0307 -0.1468
 7763SOL     OW25282   5.031   1.065   4.056  0.3874 -0.7426 -0.2010
 7763SOL    HW125283   5.113   1.113   4.066 -1.7499  2.8278  2.7771
 7763SOL    HW225284   5.029   1.007   4.133 -0.2138 -0.1973  0.1997
 7764SOL     OW25285   1.730   2.376   0.301 -0.3291  0.0801 -0.2097
 7764SOL    HW125286   1.686   2.345   0.380 -1.1284  0.7793 -0.3723
 7764SOL    HW225287   1.810   2.417   0.333 -0.9775  0.9739  0.3156
 7765SOL     OW25288   8.392   2.949   2.567 -0.1431  0.2187 -0.2143
 7765SOL    HW125289   8.305   2.989   2.572 -1.2758 -1.7791 -2.0799
 7765SOL    HW225290   8.414   2.952   2.474  0.2591 -2.2622 -0.2579
 7766SOL     OW25291   3.528   6.138   0.160 -0.1414  0.2602 -0.2792
 7766SOL    HW125292   3.517   6.226   0.195 -1.7643 -0.6447  1.7432
 7766SOL    HW225293   3.569   6.088   0.231  0.9380 -0.6054 -1.4486
 7767SOL     OW25294   8.308   4.353   6.675 -0.7070  0.5563 -0.1778
 7767SOL    HW125295   8.300   4.346   6.770  1.2552 -3.3238 -0.0845
 7767SOL    HW225296   8.219   4.339   6.642 -1.0389 -0.6079  1.1069
 7768SOL     OW25297   3.074   5.183   8.041 -0.5855  0.2067 -0.7217
 7768SOL    HW125298   3.165   5.206   8.025 -0.4627  0.6649  0.5339
 7768SOL    HW225299   3.074   5.087   8.047 -0.0120  0.2503  0.1785
 7769SOL     OW25300   5.374   1.045   7.093 -0.0192  0.6871  0.2648
 7769SOL    HW125301   5.457   1.024   7.051  0.4833  1.0618  1.0557
 7769SOL    HW225302   5.334   0.960   7.111 -0.2131  0.5154 -0.8868
 7770SOL     OW25303   0.911   6.542   0.894  0.3361  0.0294  0.0899
 7770SOL    HW125304   0.850   6.547   0.821 -0.2299  1.1969  0.6158
 7770SOL    HW225305   0.855   6.530   0.971  0.8772 -0.4644  0.4159
 7771SOL     OW25306   4.108   1.668   4.371 -0.3376 -0.1546 -0.0583
 7771SOL    HW125307   4.129   1.578   4.345  0.4987  0.2460 -0.8709
 7771SOL    HW225308   4.102   1.716   4.288 -1.8950  0.3249  0.3018
 7772SOL     OW25309   5.460   8.128   4.889 -0.2869 -0.6306 -0.4870
 7772SOL    HW125310   5.435   8.135   4.981  0.2901 -2.2154 -0.1855
 7772SOL    HW225311   5.382   8.154   4.841 -0.8042 -0.4243  0.4435
 7773SOL     OW25312   5.404   7.639   7.670 -0.1200 -0.0635 -0.4205
 7773SOL    HW125313   5.413   7.710   7.733  1.3078 -0.6727  0.0935
 7773SOL    HW225314   5.469   7.657   7.602 -1.0743  0.1388 -1.3122
 7774SOL     OW25315   5.083   3.497   6.662  0.0840 -0.3940  0.1560
 7774SOL    HW125316   5.178   3.499   6.674  0.2722  0.4003 -1.2979
 7774SOL    HW225317   5.069   3.434   6.591 -0.5300 -0.8080  0.6292
 7775SOL     OW25318   4.695   8.044   0.095 -0.1488  0.0037 -0.3662
 7775SOL    HW125319   4.666   7.997   0.017  1.5179 -0.0443 -0.9891
 7775SOL    HW225320   4.688   7.980   0.165 -2.1395  0.1887 -0.3307
 7776SOL     OW25321   4.057   8.662   6.146  0.3797 -0.2749  0.3172
 7776SOL    HW125322   4.095   8.748   6.127  1.1870 -0.3254  1.5517
 7776SOL    HW225323   4.112   8.628   6.217  1.5237 -2.7735 -1.6188
 7777SOL     OW25324   4.830   6.323   0.942  0.1676 -0.0250 -0.0919
 7777SOL    HW125325   4.893   6.359   1.006  2.7975 -1.6550 -1.5609
 7777SOL    HW225326   4.762   6.390   0.935  1.7573  1.9137  1.5966
 7778SOL     OW25327   8.485   0.347   5.122 -0.3023  0.6065 -0.0793
 7778SOL    HW125328   8.537   0.399   5.183  0.6605  1.3717 -1.5012
 7778SOL    HW225329   8.430   0.411   5.077 -1.8597 -0.0878  0.7699
 7779SOL     OW25330   7.320   6.503   8.273 -0.0427  0.0591 -0.1212
 7779SOL    HW125331   7.258   6.570   8.301  0.2922  0.4252 -0.2388
 7779SOL    HW225332   7.274   6.455   8.204 -0.2035  0.3093 -0.1888
 7780SOL     OW25333   4.031   5.198   4.728 -0.2230 -0.3452  0.1965
 7780SOL    HW125334   3.966   5.268   4.729 -0.5557 -0.6188 -0.7748
 7780SOL    HW225335   4.112   5.239   4.760  0.0517  0.9759 -2.0141
 7781SOL     OW25336   6.036   3.031   6.603 -0.3908 -0.5002  0.7852
 7781SOL    HW125337   6.039   3.025   6.698  1.1783 -0.3649  0.7724
 7781SOL    HW225338   6.041   2.940   6.573  0.5650 -0.4641  0.8236
 7782SOL     OW25339   5.496   4.831   5.916  0.3163 -0.5587 -0.3886
 7782SOL    HW125340   5.429   4.777   5.957  0.3483 -1.1993 -1.1509
 7782SOL    HW225341   5.450   4.911   5.890  0.4819  0.2314  1.6283
 7783SOL     OW25342   6.611   3.565   7.876  0.3325 -0.0493  0.8835
 7783SOL    HW125343   6.542   3.546   7.939 -0.5222 -0.8128 -0.2273
 7783SOL    HW225344   6.604   3.495   7.811  0.2512  1.4188 -0.7981
 7784SOL     OW25345   0.030   7.462   6.958 -0.3836  0.1915  0.2543
 7784SOL    HW125346  -0.007   7.399   7.020  0.5361  0.2643  0.9058
 7784SOL    HW225347   0.125   7.455   6.971 -0.2312  1.0445 -0.3322
 7785SOL     OW25348   4.689   2.649   2.588 -0.3052  0.7952 -0.2687
 7785SOL    HW125349   4.610   2.704   2.580 -0.6336  0.1160 -2.3178
 7785SOL    HW225350   4.725   2.672   2.673 -2.6597  1.2149  0.7095
 7786SOL     OW25351   0.336   6.679   8.279 -0.0238 -0.2575 -0.8786
 7786SOL    HW125352   0.429   6.666   8.297  0.0981  0.7598 -0.7017
 7786SOL    HW225353   0.309   6.748   8.339 -1.0925 -1.0677 -0.3759
 7787SOL     OW25354   6.949   6.468   8.245  0.1514  0.2774  0.2834
 7787SOL    HW125355   6.910   6.554   8.230  0.6122  0.2495 -1.2546
 7787SOL    HW225356   6.992   6.475   8.331  1.2154  1.9703 -0.3379
 7788SOL     OW25357   1.238   3.886   7.217  0.3311  0.2598  0.6993
 7788SOL    HW125358   1.249   3.860   7.125 -1.1951  0.9682  0.2860
 7788SOL    HW225359   1.286   3.968   7.224  0.5780  0.1284  0.5819
 7789SOL     OW25360   0.945   2.966   0.619 -0.2419 -0.5770  0.0301
 7789SOL    HW125361   0.979   2.909   0.688  0.3309 -1.6010 -1.0599
 7789SOL    HW225362   1.016   3.029   0.603  0.7980 -2.0120 -1.4480
 7790SOL     OW25363   0.582   7.696   7.975  0.4790 -0.1464 -0.1772
 7790SOL    HW125364   0.597   7.603   7.987  0.8944 -0.2952 -1.6337
 7790SOL    HW225365   0.585   7.733   8.063 -2.0413 -1.8210  0.7400
 7791SOL     OW25366   7.842   8.545   5.887  0.4086  0.4979  0.4216
 7791SOL    HW125367   7.750   8.523   5.870  0.2673  1.5160 -0.2238
 7791SOL    HW225368   7.884   8.461   5.906 -0.4977 -0.0724 -0.0294
 7792SOL     OW25369   5.748   1.560   2.689 -0.0663  0.1870  0.0994
 7792SOL    HW125370   5.705   1.512   2.620 -0.4439  0.1930  0.3274
 7792SOL    HW225371   5.785   1.637   2.646  0.3056 -0.1663 -0.2144
 7793SOL     OW25372   7.140   1.309   7.290  0.3542  0.6566 -0.1752
 7793SOL    HW125373   7.125   1.245   7.360  2.6848 -0.2972 -0.4658
 7793SOL    HW225374   7.150   1.255   7.211  1.1273  1.4649 -0.6391
 7794SOL     OW25375   2.186   3.229   5.080 -0.2207 -0.7190 -0.0706
 7794SOL    HW125376   2.157   3.143   5.111 -0.5959 -0.6314 -0.1763
 7794SOL    HW225377   2.198   3.280   5.160  1.4288 -1.3065  0.0893
 7795SOL     OW25378   8.005   2.599   5.047  0.3061  0.1134 -0.0059
 7795SOL    HW125379   7.940   2.629   5.111 -1.7181  0.6176 -2.1230
 7795SOL    HW225380   7.975   2.637   4.964  2.9061 -0.3282 -1.2529
 7796SOL     OW25381   7.457   6.922   5.672  0.0155 -1.1965 -0.6510
 7796SOL    HW125382   7.488   6.874   5.749 -0.5497 -1.0810 -0.3453
 7796SOL    HW225383   7.518   6.898   5.603  3.2524  1.9550  0.7584
 7797SOL     OW25384   8.676   8.664   0.735  0.0668 -0.2232 -0.1245
 7797SOL    HW125385   8.740   8.677   0.805  3.4431 -0.2632 -2.9123
 7797SOL    HW225386   8.677   8.570   0.719 -1.2412 -0.3089  0.1965
 7798SOL     OW25387   7.134   4.331   1.166 -0.2422  1.4963 -0.5329
 7798SOL    HW125388   7.203   4.270   1.192 -0.0089  1.8194 -0.3877
 7798SOL    HW225389   7.061   4.311   1.225 -0.0197  1.6378 -0.2053
 7799SOL     OW25390   5.485   8.405   1.290 -0.9537  0.1218  0.1786
 7799SOL    HW125391   5.432   8.366   1.220 -0.7491  1.3827 -0.6904
 7799SOL    HW225392   5.564   8.436   1.247 -1.2362  1.7625  0.7910
 7800SOL     OW25393   0.369   6.694   0.199 -0.2413  0.5608  0.4361
 7800SOL    HW125394   0.406   6.639   0.268  0.1526 -0.0791 -0.2675
 7800SOL    HW225395   0.309   6.753   0.245 -1.3111 -1.0095  1.1427
 7801SOL     OW25396   3.781   3.253   7.100  0.0893 -0.3141 -0.1280
 7801SOL    HW125397   3.778   3.332   7.154 -0.4072 -0.1030 -0.4558
 7801SOL    HW225398   3.841   3.195   7.147 -0.5915 -0.2684  0.8293
 7802SOL     OW25399   6.692   0.842   2.640 -0.8616 -0.3545  0.7179
 7802SOL    HW125400   6.709   0.918   2.695  0.3134  0.0352 -0.1349
 7802SOL    HW225401   6.677   0.770   2.702  1.7064 -0.2245  1.6132
 7803SOL     OW25402   0.820   4.078   6.310  0.0150 -0.0314  0.6199
 7803SOL    HW125403   0.842   4.024   6.233  2.6271  0.1971  1.1192
 7803SOL    HW225404   0.741   4.037   6.345 -1.2367 -0.1964 -2.0978
 7804SOL     OW25405   7.266   4.327   2.107 -0.0281  0.0944  0.0614
 7804SOL    HW125406   7.353   4.342   2.070 -1.2135 -0.3864 -3.3152
 7804SOL    HW225407   7.275   4.247   2.159  1.7999  0.8791  1.0342
 7805SOL     OW25408   7.972   6.451   5.916 -0.1733 -0.2794  0.1091
 7805SOL    HW125409   7.932   6.464   6.002 -1.3501  0.0291 -0.4713
 7805SOL    HW225410   8.012   6.535   5.895 -1.7097  0.3114 -0.5541
 7806SOL     OW25411   4.672   2.658   0.581 -0.0418 -0.2004  0.1152
 7806SOL    HW125412   4.605   2.595   0.606 -1.3968  0.7551 -0.9155
 7806SOL    HW225413   4.624   2.726   0.534  1.4949  1.1387  0.3883
 7807SOL     OW25414   8.098   7.746   5.399  0.0678 -0.4811 -0.3196
 7807SOL    HW125415   8.148   7.826   5.411  1.9685 -1.6686  0.0192
 7807SOL    HW225416   8.031   7.748   5.467  0.2851  0.6464 -0.1290
 7808SOL     OW25417   0.450   3.059   3.588 -0.9633  0.1982 -0.3620
 7808SOL    HW125418   0.381   3.084   3.527  0.6566 -1.1508 -2.9189
 7808SOL    HW225419   0.515   3.014   3.534  0.1944 -1.9121  2.5321
 7809SOL     OW25420   2.469   3.947   8.468  0.3420  0.0081 -0.0087
 7809SOL    HW125421   2.445   3.875   8.526  0.1141 -0.1994 -0.3514
 7809SOL    HW225422   2.556   3.924   8.436  0.9609  0.7019  1.1447
 7810SOL     OW25423   6.980   4.490   7.493 -0.0572 -0.0668  0.2349
 7810SOL    HW125424   7.059   4.544   7.498 -0.7809  1.0231  0.2652
 7810SOL    HW225425   6.939   4.500   7.579 -1.6206  1.6095 -0.6338
 7811SOL     OW25426   3.752   8.602   2.595  0.1775 -0.5004  0.5069
 7811SOL    HW125427   3.778   8.531   2.653  1.1347  0.0360  0.7676
 7811SOL    HW225428   3.835   8.636   2.561 -0.3267 -0.3429 -0.6212
 7812SOL     OW25429   6.584   2.487   0.825  0.0947 -0.2400 -0.1962
 7812SOL    HW125430   6.612   2.494   0.916  1.8092 -1.1579 -0.6192
 7812SOL    HW225431   6.511   2.549   0.818  1.0797  1.1911  1.3555
 7813SOL     OW25432   2.061   1.710   3.396 -0.1624 -0.0057  0.0313
 7813SOL    HW125433   1.991   1.769   3.366 -0.4135 -0.0175  0.5776
 7813SOL    HW225434   2.014   1.632   3.426  0.1071 -0.1200  0.1530
 7814SOL     OW25435   2.035   6.116   3.011  0.1833  0.4098  0.7107
 7814SOL    HW125436   1.983   6.110   2.930  1.6471  1.5093 -0.3498
 7814SOL    HW225437   2.022   6.031   3.053 -0.5345 -0.2393 -0.7277
 7815SOL     OW25438   3.406   2.496   4.512  0.1589  0.6318 -0.3710
 7815SOL    HW125439   3.446   2.573   4.472  0.8855  0.7066  0.4695
 7815SOL    HW225440   3.338   2.532   4.569  1.3333  0.7744  1.0032
 7816SOL     OW25441   0.414   3.444   5.028 -0.3587  0.4551  0.3567
 7816SOL    HW125442   0.430   3.535   5.004 -1.2183  0.0572 -1.9964
 7816SOL    HW225443   0.365   3.408   4.954 -0.4917 -1.7968  1.4546
 7817SOL     OW25444   5.607   3.916   7.246  0.1998  0.5544 -0.7219
 7817SOL    HW125445   5.670   3.852   7.213  0.8733  1.2919 -0.8891
 7817SOL    HW225446   5.541   3.923   7.178 -0.1283 -0.3038 -0.5002
 7818SOL     OW25447   1.360   5.961   2.125  0.0125 -0.4366  0.2146
 7818SOL    HW125448   1.356   5.968   2.220 -2.1865  1.2395  0.0829
 7818SOL    HW225449   1.393   6.046   2.096  0.4776 -0.8674 -0.5601
 7819SOL     OW25450   6.506   3.172   7.886 -0.2672 -0.1161  0.5725
 7819SOL    HW125451   6.425   3.123   7.872  0.1665 -0.3754 -1.2332
 7819SOL    HW225452   6.573   3.105   7.900 -0.0852  0.0528  0.5069
 7820SOL     OW25453   2.114   5.136   5.577 -0.0810  0.4547 -0.0625
 7820SOL    HW125454   2.087   5.124   5.668  0.4113  1.0002  0.1613
 7820SOL    HW225455   2.038   5.176   5.535 -0.1275  0.6961  0.2410
 7821SOL     OW25456   0.625   8.015   6.222  0.4008 -0.3517 -0.1938
 7821SOL    HW125457   0.530   8.022   6.220  0.3469 -1.0571 -0.1347
 7821SOL    HW225458   0.644   7.926   6.192  0.9723 -0.6886  1.0903
 7822SOL     OW25459   4.332   1.817   8.455  0.1042 -0.1231 -0.1940
 7822SOL    HW125460   4.352   1.907   8.430  0.8503 -0.6036 -1.3949
 7822SOL    HW225461   4.405   1.790   8.510  0.5271 -0.3977 -0.8773
 7823SOL     OW25462   0.160   2.991   7.609  0.4971 -0.4907  0.6215
 7823SOL    HW125463   0.148   3.002   7.514  2.7830  1.7641  0.4625
 7823SOL    HW225464   0.235   2.932   7.616  0.9726  0.1324  0.9431
 7824SOL     OW25465   4.802   4.572   5.491  0.7361 -0.3790  0.6610
 7824SOL    HW125466   4.824   4.555   5.582 -0.5885  3.8533  1.9993
 7824SOL    HW225467   4.864   4.639   5.463  2.2858 -2.7923 -2.3013
 7825SOL     OW25468   7.815   6.591   7.906 -0.0922 -0.2707  0.3080
 7825SOL    HW125469   7.723   6.607   7.929 -0.9732  1.0655 -3.5092
 7825SOL    HW225470   7.861   6.668   7.939 -1.1473  1.1860 -1.4489
 7826SOL     OW25471   2.349   0.517   5.579 -0.1706  0.3264  0.4702
 7826SOL    HW125472   2.415   0.471   5.630 -0.7198 -0.8119  0.1728
 7826SOL    HW225473   2.396   0.549   5.502 -0.2692 -1.9206 -0.5891
 7827SOL     OW25474   1.158   2.776   5.806  0.0205  0.1868  0.0693
 7827SOL    HW125475   1.213   2.701   5.830 -0.1040  0.2548  0.5794
 7827SOL    HW225476   1.070   2.750   5.832 -0.2602 -0.0906 -1.1302
 7828SOL     OW25477   5.801   5.563   6.476 -0.0203  0.4081  0.2619
 7828SOL    HW125478   5.814   5.548   6.570  0.8027  0.1011  0.1051
 7828SOL    HW225479   5.821   5.478   6.436 -2.4044 -0.0937 -0.0332
 7829SOL     OW25480   7.754   0.346   8.815  0.8547  0.0051  0.0143
 7829SOL    HW125481   7.660   0.344   8.795  1.1368 -0.2404 -1.3587
 7829SOL    HW225482   7.797   0.346   8.730  2.1538 -2.1844  0.5917
 7830SOL     OW25483   1.823   2.857   0.705  0.7100 -0.4768 -0.0733
 7830SOL    HW125484   1.810   2.786   0.641 -0.8738 -0.3072  0.0349
 7830SOL    HW225485   1.751   2.846   0.768  1.4004  0.2491  0.8657
 7831SOL     OW25486   8.867   0.660   4.596  0.1970 -0.0990 -0.0183
 7831SOL    HW125487   8.846   0.606   4.673  0.5681 -0.4280 -0.1463
 7831SOL    HW225488   8.792   0.719   4.588  1.3237  1.8007  2.2262
 7832SOL     OW25489   0.839   0.150   1.671 -0.1365 -0.5746 -0.8701
 7832SOL    HW125490   0.904   0.159   1.602 -0.4764  0.9031 -1.0230
 7832SOL    HW225491   0.866   0.213   1.738 -0.2208 -1.4730  0.0307
 7833SOL     OW25492   8.569   1.640   1.491 -0.0186  0.5273  0.4395
 7833SOL    HW125493   8.537   1.649   1.581  0.0135 -0.0533  0.5118
 7833SOL    HW225494   8.504   1.585   1.447  0.4189  0.0737  0.3488
 7834SOL     OW25495   0.761   1.831   3.298 -0.1653  0.5905  0.1711
 7834SOL    HW125496   0.737   1.819   3.206 -1.2671 -1.8865  0.6878
 7834SOL    HW225497   0.679   1.856   3.340 -0.7732 -2.5292  1.0831
 7835SOL     OW25498   6.422   4.767   6.306 -0.0436 -0.1831 -0.2214
 7835SOL    HW125499   6.474   4.800   6.380  1.2177 -0.6525 -0.8713
 7835SOL    HW225500   6.343   4.821   6.306 -0.0227 -0.1031  1.4000
 7836SOL     OW25501   7.651   2.662   6.677 -0.0976 -0.0868  0.2257
 7836SOL    HW125502   7.675   2.668   6.585  0.1719  0.7803  0.3471
 7836SOL    HW225503   7.604   2.744   6.695  1.2524  0.4892  1.2594
 7837SOL     OW25504   0.152   4.478   4.673 -0.1870 -0.1028  0.0114
 7837SOL    HW125505   0.196   4.472   4.588 -0.6200 -2.8142 -0.1293
 7837SOL    HW225506   0.122   4.568   4.678  0.1212  0.2416 -2.5846
 7838SOL     OW25507   6.964   7.850   7.222 -0.2231 -0.6939 -0.3622
 7838SOL    HW125508   7.041   7.900   7.194 -0.7062 -0.3662 -1.1163
 7838SOL    HW225509   6.979   7.762   7.188 -0.7378 -0.3356 -1.5724
 7839SOL     OW25510   0.651   3.946   1.586 -0.1714  0.0211  0.2232
 7839SOL    HW125511   0.725   4.007   1.591 -0.8582  1.0773 -1.5375
 7839SOL    HW225512   0.574   4.002   1.573 -1.0859 -1.1350  0.3989
 7840SOL     OW25513   0.928   0.043   7.795  0.6965  0.1806 -0.3887
 7840SOL    HW125514   1.001   0.068   7.738  0.1033  1.3022 -0.6759
 7840SOL    HW225515   0.850   0.070   7.747 -0.1280 -3.1268 -1.2163
 7841SOL     OW25516   3.160   7.179   3.277 -0.7848 -0.1833 -0.0189
 7841SOL    HW125517   3.136   7.169   3.185 -0.1687 -0.7826 -0.1264
 7841SOL    HW225518   3.094   7.238   3.313 -2.5617 -1.9197 -0.2485
 7842SOL     OW25519   7.280   8.566   6.544  0.2682 -0.1882  0.6926
 7842SOL    HW125520   7.311   8.570   6.635  0.5174 -0.3894  0.6180
 7842SOL    HW225521   7.330   8.634   6.499  0.3768 -0.3061  0.6366
 7843SOL     OW25522   6.555   5.193   1.669 -0.1211 -0.2686 -0.1225
 7843SOL    HW125523   6.485   5.248   1.703 -0.3407 -0.0975 -0.8398
 7843SOL    HW225524   6.525   5.165   1.582  0.0411 -1.4126  0.1685
 7844SOL     OW25525   2.642   4.962   5.272  0.0256  0.0397  0.2712
 7844SOL    HW125526   2.622   4.876   5.309 -1.2772  1.2079  2.5109
 7844SOL    HW225527   2.557   4.999   5.249  0.7087 -0.0221 -2.6766
 7845SOL     OW25528   3.661   7.248   5.608 -0.2715  0.2381 -0.0831
 7845SOL    HW125529   3.668   7.319   5.671 -1.8107 -0.9748  1.5704
 7845SOL    HW225530   3.740   7.196   5.622  0.5100  1.1890 -0.8050
 7846SOL     OW25531   0.947   1.895   0.089  0.0164  0.7194  0.0098
 7846SOL    HW125532   0.861   1.852   0.089 -0.8701  2.3908  0.2112
 7846SOL    HW225533   0.962   1.918   0.180  1.5160 -1.0209  0.2717
 7847SOL     OW25534   7.623   2.341   1.041 -0.4140 -0.6636  0.4223
 7847SOL    HW125535   7.565   2.331   1.117 -1.4867 -1.1186 -0.4265
 7847SOL    HW225536   7.710   2.321   1.075 -0.3779  2.0219  2.2287
 7848SOL     OW25537   7.243   0.355   6.623 -0.2055 -0.1965  0.3219
 7848SOL    HW125538   7.194   0.389   6.548 -0.3343  0.6465  0.7661
 7848SOL    HW225539   7.278   0.271   6.594  3.7068  2.0909 -2.3394
 7849SOL     OW25540   7.522   7.885   6.101  0.2651  0.1018 -0.2393
 7849SOL    HW125541   7.444   7.914   6.054  0.4261  0.2139 -0.4415
 7849SOL    HW225542   7.581   7.961   6.099 -0.0105  0.3654  0.7943
 7850SOL     OW25543   3.548   8.326   0.633 -0.3063  0.5217 -0.1137
 7850SOL    HW125544   3.638   8.343   0.607 -0.3149  0.3634 -0.2511
 7850SOL    HW225545   3.556   8.274   0.714 -0.2646 -0.1457 -0.5392
 7851SOL     OW25546   2.293   4.850   5.162  0.2825 -0.1664  0.4810
 7851SOL    HW125547   2.215   4.827   5.113  1.6056 -0.5064 -1.5646
 7851SOL    HW225548   2.318   4.769   5.207  0.1292 -0.3832  0.1751
 7852SOL     OW25549   1.650   3.939   7.707  0.3953  1.1414  0.0645
 7852SOL    HW125550   1.680   3.976   7.624  0.6420  0.7036 -0.0471
 7852SOL    HW225551   1.555   3.931   7.698  0.6177 -0.9657 -1.0577
 7853SOL     OW25552   3.764   5.183   4.923  0.4366  0.1869 -0.0130
 7853SOL    HW125553   3.845   5.145   4.956  0.7296  0.4719 -0.3864
 7853SOL    HW225554   3.723   5.114   4.872 -0.7388 -0.7504  2.0612
 7854SOL     OW25555   7.513   7.428   5.284  0.2973 -0.2119 -0.1627
 7854SOL    HW125556   7.489   7.339   5.258  0.2222 -0.4016  0.5231
 7854SOL    HW225557   7.497   7.430   5.379 -3.1966  1.5883 -0.6142
 7855SOL     OW25558   6.022   4.495   4.160  0.0940 -0.6192  0.3813
 7855SOL    HW125559   6.095   4.557   4.157  0.9640 -1.6235 -0.5733
 7855SOL    HW225560   5.948   4.542   4.121  0.3401  0.2783  0.9845
 7856SOL     OW25561   7.067   4.909   7.471 -0.0180 -0.2993 -0.6893
 7856SOL    HW125562   7.123   4.973   7.515 -0.2163 -0.4243 -0.2453
 7856SOL    HW225563   6.978   4.939   7.488 -0.1049 -0.5312 -0.7229
 7857SOL     OW25564   3.546   0.427   8.490 -0.0758  0.6621 -0.3488
 7857SOL    HW125565   3.484   0.471   8.548  0.0705  1.1558 -0.5618
 7857SOL    HW225566   3.577   0.496   8.431  0.8781  0.4787 -0.0795
 7858SOL     OW25567   8.653   3.232   4.405 -0.0561 -0.3479  0.3563
 7858SOL    HW125568   8.568   3.265   4.432  0.4858  1.0089  0.4621
 7858SOL    HW225569   8.690   3.194   4.485 -0.1338 -0.0102  0.5532
 7859SOL     OW25570   6.913   5.081   8.701 -0.0264  0.0153  0.2413
 7859SOL    HW125571   6.917   5.009   8.764 -1.3744  0.0596  0.4031
 7859SOL    HW225572   6.891   5.158   8.755 -0.0357  0.2690 -0.1210
 7860SOL     OW25573   5.489   1.088   2.099 -0.2703 -0.0288  1.0366
 7860SOL    HW125574   5.466   0.999   2.125  0.6589 -1.2295 -1.8002
 7860SOL    HW225575   5.410   1.122   2.057  0.1371 -0.5309 -0.1741
 7861SOL     OW25576   3.341   7.024   2.014  0.3404 -0.0755  0.7321
 7861SOL    HW125577   3.385   7.109   2.015  1.2368 -0.4731 -0.9471
 7861SOL    HW225578   3.381   6.977   1.941 -2.0669 -0.9232 -0.1398
 7862SOL     OW25579   1.449   1.721   2.146  0.0897 -0.3345 -0.2308
 7862SOL    HW125580   1.393   1.780   2.095  0.4561  0.1170 -0.1195
 7862SOL    HW225581   1.504   1.677   2.081 -2.2711 -2.9123 -0.6679
 7863SOL     OW25582   8.010   3.360   5.952 -0.4576  0.2658 -0.3440
 7863SOL    HW125583   8.038   3.385   6.040  0.7981 -1.6224 -0.1591
 7863SOL    HW225584   7.915   3.353   5.958 -0.4272  0.6560  0.7130
 7864SOL     OW25585   5.777   0.635   0.806 -0.2097 -0.0948  0.0225
 7864SOL    HW125586   5.757   0.722   0.840  0.5008  1.0081 -2.2477
 7864SOL    HW225587   5.861   0.645   0.762  0.7285 -2.3658  1.1342
 7865SOL     OW25588   5.637   1.195   4.538 -0.3680 -0.2375 -0.0293
 7865SOL    HW125589   5.700   1.220   4.605  2.6654 -1.6009 -2.1555
 7865SOL    HW225590   5.583   1.128   4.581  0.3755  0.0970  1.5067
 7866SOL     OW25591   4.354   4.299   7.131  0.0592 -0.1440  0.5548
 7866SOL    HW125592   4.298   4.258   7.065 -0.0499 -0.0741  0.6026
 7866SOL    HW225593   4.423   4.343   7.082  0.6759 -1.1008  0.5304
 7867SOL     OW25594   1.222   0.052   7.059 -0.1091  0.2186 -0.1543
 7867SOL    HW125595   1.266  -0.027   7.089 -1.5333  0.0318  1.5736
 7867SOL    HW225596   1.282   0.089   6.993  2.6650  0.0419  2.0919
 7868SOL     OW25597   2.677   8.115   1.860 -0.0540 -0.3378 -0.2996
 7868SOL    HW125598   2.692   8.071   1.944  1.1767 -2.5643 -1.5918
 7868SOL    HW225599   2.744   8.183   1.857 -0.5496  0.2339  0.7737
 7869SOL     OW25600   5.670   4.849   5.329  0.0892 -0.0058 -0.1637
 7869SOL    HW125601   5.602   4.916   5.340  1.3541  1.5325 -1.2542
 7869SOL    HW225602   5.639   4.775   5.381 -1.8799  1.0341  0.2506
 7870SOL     OW25603   2.701   6.462   2.394 -0.1472 -0.0335 -0.9070
 7870SOL    HW125604   2.781   6.456   2.342  0.3365 -0.9849 -0.0969
 7870SOL    HW225605   2.633   6.426   2.337  0.4775 -1.5946 -0.7061
 7871SOL     OW25606   4.940   6.229   7.010  0.5660 -0.0954 -0.2593
 7871SOL    HW125607   4.851   6.200   6.991 -0.0068  0.7824  0.9717
 7871SOL    HW225608   4.937   6.260   7.100  2.0040  0.4190 -0.3551
 7872SOL     OW25609   2.479   0.558   5.343 -0.4028 -0.3683  0.1261
 7872SOL    HW125610   2.569   0.555   5.313 -0.7912 -2.2533 -0.9591
 7872SOL    HW225611   2.430   0.505   5.280 -2.2775  0.5889  0.6947
 7873SOL     OW25612   4.726   2.465   6.557  0.1713 -0.2481 -0.0015
 7873SOL    HW125613   4.793   2.517   6.513  0.7925 -0.1801  0.9842
 7873SOL    HW225614   4.717   2.386   6.503  1.8857 -0.7893  0.4259
 7874SOL     OW25615   7.020   5.808   3.087  0.1803 -0.1154  0.4271
 7874SOL    HW125616   7.076   5.790   3.012 -1.5437  0.0226 -0.9603
 7874SOL    HW225617   7.047   5.744   3.153  2.2440  0.2537  0.0033
 7875SOL     OW25618   7.201   1.955   7.308  0.2665 -0.7785  0.0487
 7875SOL    HW125619   7.144   1.895   7.259  0.9739 -0.0403 -1.7762
 7875SOL    HW225620   7.152   2.037   7.312  0.0740 -0.9289  0.9084
 7876SOL     OW25621   0.686   3.503   3.234 -0.1693  0.1853  0.1846
 7876SOL    HW125622   0.652   3.541   3.152 -0.7116 -1.2794 -0.2964
 7876SOL    HW225623   0.710   3.413   3.211  0.3476 -0.0315  1.4781
 7877SOL     OW25624   2.720   0.615   5.240 -0.1378  0.2830 -0.0474
 7877SOL    HW125625   2.783   0.630   5.170 -0.3732  1.4922 -0.0187
 7877SOL    HW225626   2.769   0.631   5.321  0.2698 -1.5914  0.1273
 7878SOL     OW25627   4.260   8.231   0.897 -0.2812 -0.1951  0.1679
 7878SOL    HW125628   4.166   8.246   0.910 -0.2901  0.5779 -0.6740
 7878SOL    HW225629   4.287   8.179   0.973 -1.5760 -1.2562 -0.0652
 7879SOL     OW25630   6.838   3.620   2.481  0.4318 -0.0453  0.4223
 7879SOL    HW125631   6.790   3.538   2.492  0.3694  0.1006  1.3388
 7879SOL    HW225632   6.901   3.621   2.553  1.3869  0.0631 -0.3941
 7880SOL     OW25633   2.919   0.489   8.766  0.4133 -0.0839 -0.1096
 7880SOL    HW125634   2.860   0.519   8.835 -1.3197 -0.3224 -1.4239
 7880SOL    HW225635   2.923   0.394   8.778  0.6225 -0.0610  0.0208
 7881SOL     OW25636   2.513   4.400   3.730  0.3453  0.1059 -0.1245
 7881SOL    HW125637   2.545   4.402   3.820 -2.1428  2.6181  0.8024
 7881SOL    HW225638   2.549   4.479   3.690 -0.2056  0.0428 -0.7495
 7882SOL     OW25639   1.566   7.176   3.159 -0.5819  0.1386 -0.0507
 7882SOL    HW125640   1.471   7.185   3.162 -0.5219  0.6559  2.7148
 7882SOL    HW225641   1.595   7.193   3.249  2.1720  0.4124 -0.8934
 7883SOL     OW25642   3.397   3.280   7.625  0.3719 -0.5939 -0.0890
 7883SOL    HW125643   3.379   3.240   7.710  0.4704 -2.2459 -0.7954
 7883SOL    HW225644   3.349   3.363   7.626  0.5154 -0.4996  1.6203
 7884SOL     OW25645   5.976   0.155   3.211 -0.5623 -0.0066  0.5489
 7884SOL    HW125646   6.052   0.164   3.268 -0.0960 -2.6164  0.4681
 7884SOL    HW225647   5.962   0.061   3.204 -2.7827  0.3397 -0.8241
 7885SOL     OW25648   3.185   2.299   4.007  0.9794 -0.3383 -0.0670
 7885SOL    HW125649   3.270   2.282   4.048  0.3013 -4.2729  0.1099
 7885SOL    HW225650   3.180   2.235   3.936 -1.5262  0.3225 -0.5813
 7886SOL     OW25651   6.821   6.213   8.211 -0.2788 -0.4492  0.0996
 7886SOL    HW125652   6.742   6.221   8.157 -0.2784  1.3412  0.2933
 7886SOL    HW225653   6.823   6.294   8.262 -0.4337 -2.1373  3.0412
 7887SOL     OW25654   5.439   1.608   7.304  0.2352 -0.7107  0.1594
 7887SOL    HW125655   5.383   1.534   7.281 -2.2102  0.8656  0.6089
 7887SOL    HW225656   5.381   1.668   7.351  2.1929  1.3297  0.1374
 7888SOL     OW25657   6.372   8.887   7.562  0.5157 -0.1843 -0.5046
 7888SOL    HW125658   6.335   8.951   7.500  1.8509  1.4375  0.2892
 7888SOL    HW225659   6.453   8.858   7.520  0.9184  0.1720  0.0133
 7889SOL     OW25660   5.354   4.657   6.502  0.0110  0.3425  0.0480
 7889SOL    HW125661   5.396   4.571   6.511  0.0584  0.4469  0.8949
 7889SOL    HW225662   5.292   4.660   6.574 -0.9534  0.4836 -0.7744
 7890SOL     OW25663   1.112   7.520   2.121  0.1048  0.3889  0.4382
 7890SOL    HW125664   1.141   7.567   2.199  1.0201  0.4714  0.0604
 7890SOL    HW225665   1.188   7.470   2.093  0.0501  0.9618 -0.8391
 7891SOL     OW25666   4.767   6.962   3.784 -0.5815 -0.3635  0.1851
 7891SOL    HW125667   4.808   7.045   3.808 -0.4857 -0.3363 -0.0667
 7891SOL    HW225668   4.831   6.920   3.727 -0.0542 -1.2152  1.3745
 7892SOL     OW25669   0.235   5.055   3.091  0.1095 -0.0906  0.4686
 7892SOL    HW125670   0.161   5.000   3.064  1.5777 -2.9392  1.8301
 7892SOL    HW225671   0.203   5.144   3.079 -2.9222 -1.1697 -0.6260
 7893SOL     OW25672   7.967   1.378   3.381 -0.3279  0.3189 -0.1770
 7893SOL    HW125673   7.926   1.358   3.465 -0.4435 -1.6373 -0.6503
 7893SOL    HW225674   8.060   1.390   3.403 -0.6136  1.6954  0.4477
 7894SOL     OW25675   4.447   5.515   4.289 -0.1309  0.4956  0.8962
 7894SOL    HW125676   4.431   5.424   4.265 -1.6791  1.5443 -2.6456
 7894SOL    HW225677   4.447   5.514   4.385 -2.6432 -2.8626  1.0608
 7895SOL     OW25678   8.120   4.610   7.763  0.1550 -0.2008 -0.2469
 7895SOL    HW125679   8.180   4.537   7.747 -0.3495 -0.3370 -1.7321
 7895SOL    HW225680   8.033   4.570   7.765  0.0811 -0.0126  1.9396
 7896SOL     OW25681   7.612   1.010   7.505  0.5038  0.5781 -0.2726
 7896SOL    HW125682   7.565   1.087   7.534  1.0243  2.0453 -2.9656
 7896SOL    HW225683   7.704   1.030   7.523  0.7100  0.9664 -1.6265
 7897SOL     OW25684   4.083   2.058   2.376  0.8840  0.0864 -0.2042
 7897SOL    HW125685   4.004   2.034   2.425  1.6004 -1.8110  0.1225
 7897SOL    HW225686   4.051   2.116   2.307 -0.7002 -0.1251  0.2974
 7898SOL     OW25687   0.075   7.133   7.836  0.0096 -0.5059  0.0655
 7898SOL    HW125688   0.038   7.130   7.924  0.9590  0.0144  0.5033
 7898SOL    HW225689   0.140   7.204   7.840  0.2378 -0.6400 -0.9808
 7899SOL     OW25690   3.060   2.519   8.852 -0.0388 -0.2291  0.1696
 7899SOL    HW125691   3.032   2.609   8.865 -2.4982 -0.9650  0.4596
 7899SOL    HW225692   3.083   2.514   8.759 -0.6061  0.5291 -0.0173
 7900SOL     OW25693   4.537   0.924   6.284  0.4788 -0.1619  0.0675
 7900SOL    HW125694   4.515   1.003   6.334  1.0938  0.4752 -0.6378
 7900SOL    HW225695   4.570   0.863   6.349  0.0513  0.1803  0.6173
 7901SOL     OW25696   6.242   4.001   1.705 -0.2247  0.1185 -0.1030
 7901SOL    HW125697   6.326   3.955   1.704  0.4755  1.0836  3.0388
 7901SOL    HW225698   6.259   4.083   1.659  0.0666 -0.3821 -0.9100
 7902SOL     OW25699   0.226   2.538   1.518  0.0473  0.0703  0.1828
 7902SOL    HW125700   0.252   2.627   1.494 -0.1135 -0.1989 -1.0686
 7902SOL    HW225701   0.308   2.488   1.519  0.1432  0.2400  0.9320
 7903SOL     OW25702   6.157   4.877   0.635 -0.3463  0.1713 -0.5840
 7903SOL    HW125703   6.171   4.972   0.633 -0.0235  0.1696  0.8125
 7903SOL    HW225704   6.156   4.854   0.728 -1.1118 -1.1036 -0.8696
 7904SOL     OW25705   2.429   8.366   5.375  0.7985  0.4973  0.3806
 7904SOL    HW125706   2.445   8.333   5.286  1.0502  0.5741  0.3948
 7904SOL    HW225707   2.481   8.310   5.431  0.2420  0.1308  0.5339
 7905SOL     OW25708   5.610   4.385   2.523 -0.1143 -0.5677  0.0018
 7905SOL    HW125709   5.661   4.460   2.492 -0.5393 -0.5880 -0.7751
 7905SOL    HW225710   5.593   4.403   2.616  0.0237  0.1584 -0.1134
 7906SOL     OW25711   3.859   6.749   5.135 -0.2300  1.0237 -0.1885
 7906SOL    HW125712   3.780   6.701   5.112  1.1065 -0.0203 -3.0739
 7906SOL    HW225713   3.910   6.688   5.189  0.0419  0.3724 -1.1549
 7907SOL     OW25714   3.412   8.579   3.995  0.2857  0.1407  0.6014
 7907SOL    HW125715   3.503   8.564   3.969 -0.0783 -1.0332 -0.0184
 7907SOL    HW225716   3.365   8.500   3.968 -0.9498  0.7828  0.8043
 7908SOL     OW25717   4.631   1.484   2.970 -0.0701  0.6158 -0.3416
 7908SOL    HW125718   4.600   1.429   3.042  0.7620  0.4571 -0.1014
 7908SOL    HW225719   4.595   1.442   2.891  1.1210 -0.7001 -0.2236
 7909SOL     OW25720   2.308   5.260   4.675 -0.2377 -0.3082  0.6186
 7909SOL    HW125721   2.304   5.171   4.710  0.4691 -0.9800 -0.9362
 7909SOL    HW225722   2.220   5.278   4.643 -0.1258 -0.8682 -0.0215
 7910SOL     OW25723   8.529   2.382   0.694 -0.0492 -0.0724 -0.0806
 7910SOL    HW125724   8.605   2.433   0.664 -0.6804  0.4950 -0.7322
 7910SOL    HW225725   8.464   2.393   0.625 -0.8430 -0.3078  0.6218
 7911SOL     OW25726   1.719   0.657   1.648  0.1007 -0.2520 -0.4430
 7911SOL    HW125727   1.767   0.636   1.728 -0.6454 -1.9010 -0.3831
 7911SOL    HW225728   1.692   0.748   1.659 -1.2405 -0.8498  1.8750
 7912SOL     OW25729   4.111   8.201   6.840  0.0481  0.3033  0.3539
 7912SOL    HW125730   4.032   8.252   6.857 -0.2449  0.0274 -0.1498
 7912SOL    HW225731   4.183   8.262   6.858 -0.2554  0.3345  1.5305
 7913SOL     OW25732   2.148   6.357   7.493  0.7079  0.1124  0.0537
 7913SOL    HW125733   2.186   6.416   7.428  0.9590 -0.8465 -0.6904
 7913SOL    HW225734   2.152   6.270   7.452  0.7337 -0.4870  1.2791
 7914SOL     OW25735   8.391   2.256   7.587  0.6007 -0.4075  0.1493
 7914SOL    HW125736   8.387   2.320   7.659 -1.4688  0.1627 -0.4159
 7914SOL    HW225737   8.302   2.221   7.581  0.4834  0.1513 -2.6459
 7915SOL     OW25738   4.903   2.183   7.902  0.1080  0.4601  0.0260
 7915SOL    HW125739   4.853   2.102   7.909  2.4782 -1.0149  1.0160
 7915SOL    HW225740   4.956   2.172   7.823  1.4277  0.4184  0.8909
 7916SOL     OW25741   8.599   2.594   3.723  0.1415  0.0664  0.5461
 7916SOL    HW125742   8.517   2.596   3.674 -0.7135  0.1319  1.9223
 7916SOL    HW225743   8.644   2.675   3.698 -1.2774  1.1873  1.5017
 7917SOL     OW25744   1.682   1.260   7.404 -0.6833 -0.9187  0.0906
 7917SOL    HW125745   1.761   1.280   7.455 -0.0781  1.1751 -1.5491
 7917SOL    HW225746   1.627   1.338   7.413 -1.4179 -1.3089 -0.8500
 7918SOL     OW25747   5.397   1.226   3.363  0.0441  0.0229 -0.5039
 7918SOL    HW125748   5.342   1.289   3.317 -1.1481 -1.4109 -1.1668
 7918SOL    HW225749   5.408   1.154   3.301  0.2898 -0.9736  0.6359
 7919SOL     OW25750   1.518   7.575   0.580 -0.0297 -0.0173 -0.0221
 7919SOL    HW125751   1.460   7.499   0.573  1.8544 -2.0144  3.0770
 7919SOL    HW225752   1.543   7.596   0.490 -1.3298 -2.5387 -1.0569
 7920SOL     OW25753   4.197   1.228   7.367 -0.1173  0.2567 -0.4062
 7920SOL    HW125754   4.155   1.150   7.332  0.2089 -0.3627  0.5503
 7920SOL    HW225755   4.125   1.281   7.401 -0.2980  0.1600 -0.6349
 7921SOL     OW25756   5.696   6.397   4.546  0.7940 -0.0381 -0.9157
 7921SOL    HW125757   5.735   6.484   4.544  0.6883  0.0060 -1.8950
 7921SOL    HW225758   5.676   6.381   4.638  0.9305  0.9219 -0.7085
 7922SOL     OW25759   4.021   0.586   8.555 -0.0751  0.1427 -0.4173
 7922SOL    HW125760   3.986   0.501   8.527 -2.1060  0.5216  0.7563
 7922SOL    HW225761   3.971   0.607   8.634  0.0466  2.6591 -0.9279
 7923SOL     OW25762   4.267   3.681   4.165 -0.2214  0.1590  0.0292
 7923SOL    HW125763   4.283   3.731   4.245 -0.5680  1.1872 -0.5157
 7923SOL    HW225764   4.353   3.674   4.123  0.1350 -1.2289  0.9442
 7924SOL     OW25765   4.111   4.324   3.013  0.1375 -0.3420 -0.0930
 7924SOL    HW125766   4.040   4.344   2.952  1.6062  0.0259 -1.7723
 7924SOL    HW225767   4.079   4.354   3.098 -0.8028  2.0138 -1.1947
 7925SOL     OW25768   3.641   7.682   0.591  0.1155 -0.0747  0.2935
 7925SOL    HW125769   3.664   7.676   0.684 -0.6723 -3.0238  0.4243
 7925SOL    HW225770   3.716   7.644   0.545  0.2581  0.8312 -0.2323
 7926SOL     OW25771   0.776   7.470   7.329 -0.0834  0.0148  0.5043
 7926SOL    HW125772   0.858   7.503   7.291  1.3252 -1.2542  2.2243
 7926SOL    HW225773   0.762   7.526   7.406 -0.8303  0.2111  0.2266
 7927SOL     OW25774   6.505   8.315   3.132  0.2275  0.1944  0.2542
 7927SOL    HW125775   6.490   8.261   3.054 -0.7333  0.1167  0.4898
 7927SOL    HW225776   6.495   8.404   3.101 -1.1917  0.1315  0.4977
 7928SOL     OW25777   0.381   8.798   1.358  0.7151  0.3540 -0.1624
 7928SOL    HW125778   0.437   8.846   1.419 -1.4177  1.1256  1.2720
 7928SOL    HW225779   0.292   8.825   1.380 -0.2382 -0.4769 -2.6740
 7929SOL     OW25780   2.679   0.270   1.173  0.2561  0.2836 -0.0182
 7929SOL    HW125781   2.700   0.216   1.096  0.6059  0.5241 -0.0914
 7929SOL    HW225782   2.740   0.344   1.168  1.6506 -0.6797  1.5530
 7930SOL     OW25783   6.295   2.924   3.299 -0.0443 -0.3019  0.2778
 7930SOL    HW125784   6.224   2.860   3.308 -1.3006  1.0591  0.3890
 7930SOL    HW225785   6.359   2.881   3.241 -1.0309 -1.4828  0.0248
 7931SOL     OW25786   7.894   5.225   8.701  0.2860  0.1624  0.2282
 7931SOL    HW125787   7.975   5.265   8.732 -0.2866  2.0879 -0.6359
 7931SOL    HW225788   7.921   5.174   8.624  0.7817  0.1989  0.3720
 7932SOL     OW25789   4.445   0.350   1.633 -0.2570  0.1240  0.2777
 7932SOL    HW125790   4.492   0.325   1.554 -1.7504  0.9882 -0.9234
 7932SOL    HW225791   4.507   0.407   1.680  1.4785 -2.0952  0.8820
 7933SOL     OW25792   6.177   6.204   4.342 -0.1869 -0.0480 -0.3772
 7933SOL    HW125793   6.156   6.132   4.282  0.6656 -0.1600 -0.5540
 7933SOL    HW225794   6.219   6.269   4.287 -0.3911  0.3233 -0.0967
 7934SOL     OW25795   8.231   1.614   3.202 -0.3826 -0.3866 -0.1991
 7934SOL    HW125796   8.294   1.547   3.177 -0.2029  0.0142 -0.8636
 7934SOL    HW225797   8.246   1.629   3.295  1.3638  0.5756 -0.5771
 7935SOL     OW25798   8.707   4.765   0.501  0.2926  0.0952 -0.2673
 7935SOL    HW125799   8.644   4.737   0.435  0.3385  2.4624 -1.4181
 7935SOL    HW225800   8.708   4.860   0.494  4.7959  0.1950 -1.1459
 7936SOL     OW25801   7.916   5.092   1.363 -0.0479  0.1846 -0.4934
 7936SOL    HW125802   7.924   5.079   1.457 -0.4536 -0.3606 -0.5306
 7936SOL    HW225803   7.860   5.169   1.354  0.0944  0.3126 -0.2902
 7937SOL     OW25804   3.988   5.420   6.372  0.3943  0.1980  0.1733
 7937SOL    HW125805   3.920   5.355   6.390 -0.8152  1.4511  0.3147
 7937SOL    HW225806   4.069   5.380   6.406 -0.7192 -0.2207  2.5463
 7938SOL     OW25807   3.417   4.488   4.350  0.5230  0.6078 -0.0610
 7938SOL    HW125808   3.493   4.544   4.336  0.8471 -0.0927 -1.2138
 7938SOL    HW225809   3.430   4.453   4.438 -0.8585  4.0512  1.7144
 7939SOL     OW25810   2.656   2.227   2.204  0.6434 -0.2143 -0.2822
 7939SOL    HW125811   2.620   2.147   2.242  1.1149 -0.3091 -0.0284
 7939SOL    HW225812   2.653   2.291   2.275  3.2258 -0.8860  0.5411
 7940SOL     OW25813   0.911   7.518   3.327  0.1027  0.2303  0.1420
 7940SOL    HW125814   0.881   7.607   3.310 -2.3167 -0.1856  1.6868
 7940SOL    HW225815   0.976   7.501   3.259  0.6975  3.1553 -0.1757
 7941SOL     OW25816   8.594   3.805   5.433  0.6927 -0.6209  0.3854
 7941SOL    HW125817   8.529   3.755   5.384 -0.6042  2.0001 -0.7828
 7941SOL    HW225818   8.667   3.744   5.447 -0.0705 -2.3216 -2.3529
 7942SOL     OW25819   7.542   4.410   7.203  0.0618 -0.4259  0.3366
 7942SOL    HW125820   7.619   4.379   7.251  0.3108 -0.5532 -0.1319
 7942SOL    HW225821   7.481   4.336   7.204 -0.2030 -0.2009  1.0153
 7943SOL     OW25822   5.669   6.916   3.098  0.0099  0.0597  0.4016
 7943SOL    HW125823   5.758   6.885   3.113  0.5244  1.4317  0.3432
 7943SOL    HW225824   5.647   6.886   3.010 -0.2125 -1.6516  1.0050
 7944SOL     OW25825   2.243   6.930   2.575  0.2586 -0.5829  0.3958
 7944SOL    HW125826   2.183   6.951   2.504  1.3346  0.4047 -0.2679
 7944SOL    HW225827   2.205   6.970   2.653 -0.0667 -0.1973  0.0398
 7945SOL     OW25828   5.981   4.089   4.138 -0.3070  0.0983 -0.2355
 7945SOL    HW125829   5.893   4.064   4.111  0.0781 -0.6879 -0.8272
 7945SOL    HW225830   6.034   4.080   4.058  0.4578 -0.2616  0.2929
 7946SOL     OW25831   0.105   0.264   0.636  0.2021  0.2270  0.1892
 7946SOL    HW125832   0.183   0.302   0.596  0.4357 -0.0389  0.3883
 7946SOL    HW225833   0.138   0.191   0.688 -0.4674 -1.8059 -2.0880
 7947SOL     OW25834   7.761   4.759   7.969  0.4588  0.5827  0.0795
 7947SOL    HW125835   7.786   4.818   7.898  0.7930  0.4768  0.1086
 7947SOL    HW225836   7.841   4.748   8.020  0.7630 -0.9710 -0.6881
 7948SOL     OW25837   0.025   6.250   3.212  0.3180  0.2233  0.3334
 7948SOL    HW125838  -0.016   6.172   3.173  0.4328  1.1091 -1.7013
 7948SOL    HW225839  -0.044   6.290   3.264 -0.2572 -0.3544  0.0309
 7949SOL     OW25840   3.479   2.283   4.897 -0.0662  0.0610  0.1268
 7949SOL    HW125841   3.425   2.361   4.913  0.8523  0.9486 -0.9546
 7949SOL    HW225842   3.480   2.274   4.802  1.0317 -0.4105  0.1721
 7950SOL     OW25843   5.251   2.384   4.334  0.0261 -0.2536  0.1312
 7950SOL    HW125844   5.275   2.296   4.305 -0.8509 -0.3229 -0.4110
 7950SOL    HW225845   5.176   2.409   4.279  0.8132  1.1915 -0.3531
 7951SOL     OW25846   4.611   2.841   8.319  0.3485 -0.1144  0.6405
 7951SOL    HW125847   4.532   2.788   8.317  0.0154  0.2506  2.3392
 7951SOL    HW225848   4.604   2.899   8.243 -1.7367  0.8885  1.5207
 7952SOL     OW25849   7.421   1.761   7.878  0.4953 -0.2179  0.1190
 7952SOL    HW125850   7.343   1.774   7.931  0.0220  0.6831 -0.7613
 7952SOL    HW225851   7.449   1.671   7.897  0.4267  0.1252  1.9632
 7953SOL     OW25852   0.865   7.442   4.793 -0.2367 -0.2654 -0.1080
 7953SOL    HW125853   0.794   7.456   4.729 -0.9631 -1.1499  0.4748
 7953SOL    HW225854   0.917   7.371   4.755  1.0336  1.1250 -1.0790
 7954SOL     OW25855   6.937   0.100   5.427 -0.0075 -0.0277 -0.0917
 7954SOL    HW125856   7.010   0.040   5.436  0.1382 -0.1766 -1.8545
 7954SOL    HW225857   6.975   0.180   5.391 -0.5200  0.3658  0.2124
 7955SOL     OW25858   2.058   5.204   2.590 -0.3133  0.5880 -0.2108
 7955SOL    HW125859   2.044   5.271   2.523 -1.2539  1.4083  0.7696
 7955SOL    HW225860   2.055   5.121   2.542 -0.5475  1.1774 -1.2442
 7956SOL     OW25861   2.053   8.858   1.007 -1.0978  0.3638  0.0918
 7956SOL    HW125862   1.966   8.876   1.042 -0.9391 -0.4242  0.9211
 7956SOL    HW225863   2.112   8.907   1.064 -0.7526 -1.7496  1.6434
 7957SOL     OW25864   2.142   5.671   2.609 -0.2360  0.2299  0.0031
 7957SOL    HW125865   2.100   5.701   2.690  0.3026 -0.1225  0.4214
 7957SOL    HW225866   2.223   5.722   2.603 -0.8407  1.1125 -0.9493
 7958SOL     OW25867   0.457   2.035   4.449  0.1959  0.4015 -1.0713
 7958SOL    HW125868   0.405   1.998   4.378  0.8068 -0.4927 -1.0744
 7958SOL    HW225869   0.421   1.994   4.528  0.0816  0.7369 -0.9484
 7959SOL     OW25870   7.982   5.503   6.710 -0.2855  0.1447  0.0865
 7959SOL    HW125871   8.011   5.420   6.747 -1.6465 -0.6744 -0.5989
 7959SOL    HW225872   8.062   5.556   6.704  0.0104  0.5506  4.5044
 7960SOL     OW25873   3.633   2.534   7.220 -0.2866 -0.4674 -0.2290
 7960SOL    HW125874   3.538   2.523   7.212 -0.0886 -2.4917 -0.1969
 7960SOL    HW225875   3.662   2.461   7.274  0.9507  1.8568  2.5110
 7961SOL     OW25876   1.177   1.965   4.995  0.5131  0.4818 -0.6595
 7961SOL    HW125877   1.091   1.966   5.037  0.4821 -1.5775 -0.5563
 7961SOL    HW225878   1.206   1.874   5.003  2.9413  1.2314 -0.2495
 7962SOL     OW25879   3.097   0.430   0.499  0.0117 -0.0081 -0.1395
 7962SOL    HW125880   3.108   0.525   0.508 -2.3741  0.3148 -0.0675
 7962SOL    HW225881   3.150   0.407   0.423  1.3241  1.2044  0.3564
 7963SOL     OW25882   4.695   7.858   0.912  0.3891 -0.6878  0.0993
 7963SOL    HW125883   4.609   7.816   0.905 -0.4784  0.7154  1.5057
 7963SOL    HW225884   4.747   7.798   0.964 -0.1996 -0.9446  0.4094
 7964SOL     OW25885   3.545   6.744   8.771 -0.4556  0.1412  0.1411
 7964SOL    HW125886   3.509   6.696   8.697  0.3733 -0.0818 -0.1293
 7964SOL    HW225887   3.623   6.787   8.736 -0.3349  0.4447  0.7632
 7965SOL     OW25888   7.019   4.117   2.148 -0.7212  0.0251 -0.2038
 7965SOL    HW125889   7.026   4.185   2.081  1.4282  0.7578  0.6664
 7965SOL    HW225890   6.925   4.106   2.162 -1.1864  3.6046  0.3782
 7966SOL     OW25891   8.476   1.348   3.641  0.1000  0.0047 -0.3533
 7966SOL    HW125892   8.529   1.276   3.607  0.2154  0.0081 -0.1818
 7966SOL    HW225893   8.523   1.427   3.614 -0.5933  0.0584 -1.4941
 7967SOL     OW25894   5.056   6.691   1.991 -0.3703 -0.2422  0.7350
 7967SOL    HW125895   5.025   6.628   2.057 -1.2046  0.1257  0.7055
 7967SOL    HW225896   5.112   6.751   2.039 -0.9841  0.0307  1.1195
 7968SOL     OW25897   6.087   0.915   4.932 -0.6342 -0.1931 -0.1948
 7968SOL    HW125898   6.156   0.940   4.994 -1.1875  0.0436  0.3363
 7968SOL    HW225899   6.005   0.939   4.976 -1.0832 -0.9484 -0.5944
 7969SOL     OW25900   4.451   1.075   3.064  0.2353 -0.7415 -0.6788
 7969SOL    HW125901   4.397   1.006   3.103  0.8421 -0.2630  1.1316
 7969SOL    HW225902   4.521   1.028   3.020  1.4561 -1.3687  1.7329
 7970SOL     OW25903   2.855   1.807   4.357 -0.3478  0.1009 -0.0896
 7970SOL    HW125904   2.935   1.810   4.409  0.4198  0.1876 -1.2491
 7970SOL    HW225905   2.812   1.726   4.383  0.0879  0.0840  0.5899
 7971SOL     OW25906   7.695   2.163   4.954  0.0594 -0.1549 -0.3636
 7971SOL    HW125907   7.625   2.098   4.951  0.2560 -0.4393  0.9693
 7971SOL    HW225908   7.765   2.124   4.900  0.0953 -0.9554  0.2422
 7972SOL     OW25909   3.938   5.616   6.167  0.0663  0.3635 -0.3795
 7972SOL    HW125910   3.889   5.676   6.223 -1.7098 -1.9189  0.6815
 7972SOL    HW225911   3.973   5.551   6.227  1.2237 -0.1517 -1.5775
 7973SOL     OW25912   6.344   2.433   5.603  0.3083  0.3295 -0.0393
 7973SOL    HW125913   6.285   2.492   5.556 -0.3918  0.0597  0.4911
 7973SOL    HW225914   6.325   2.346   5.567 -1.4328 -0.1376  1.8670
 7974SOL     OW25915   1.060   8.315   2.222 -0.1112  0.6971  0.1981
 7974SOL    HW125916   1.056   8.410   2.216 -1.2663  0.7870  1.7018
 7974SOL    HW225917   1.154   8.296   2.234  0.3268  1.4799 -1.6793
 7975SOL     OW25918   8.510   4.146   3.490 -0.3106  0.0743  0.6249
 7975SOL    HW125919   8.510   4.053   3.515 -1.3178 -0.9856 -2.8288
 7975SOL    HW225920   8.435   4.183   3.536 -1.2990 -1.3952  0.2441
 7976SOL     OW25921   5.826   8.386   2.073 -0.1010  0.4929 -0.0049
 7976SOL    HW125922   5.905   8.441   2.079 -0.2783  0.7577 -0.0514
 7976SOL    HW225923   5.758   8.439   2.115  0.1263 -0.4762  1.6477
 7977SOL     OW25924   8.327   7.025   1.447  0.4258 -0.0037 -0.4394
 7977SOL    HW125925   8.250   7.076   1.470 -0.1256 -0.5599 -1.0078
 7977SOL    HW225926   8.392   7.091   1.421 -0.2416  0.4309 -1.0759
 7978SOL     OW25927   4.700   7.852   0.286 -0.2605  0.1638 -0.2867
 7978SOL    HW125928   4.793   7.838   0.304 -0.0860 -1.6734 -2.2272
 7978SOL    HW225929   4.656   7.830   0.367  0.8864 -0.6801  0.1309
 7979SOL     OW25930   1.687   3.025   4.453 -0.3413 -0.1915  0.4001
 7979SOL    HW125931   1.670   3.043   4.360 -0.2772 -0.3253  0.3617
 7979SOL    HW225932   1.609   2.979   4.483 -0.4847  0.1052  0.4871
 7980SOL     OW25933   3.546   3.897   7.665  0.5028 -0.3021  0.2306
 7980SOL    HW125934   3.518   3.809   7.640 -0.9875 -0.2983  1.7149
 7980SOL    HW225935   3.524   3.952   7.589 -0.0740 -0.9544 -0.0829
 7981SOL     OW25936   6.957   8.000   1.574 -0.0264  0.0386  0.5220
 7981SOL    HW125937   6.873   7.988   1.531  1.4530 -2.4879 -1.9349
 7981SOL    HW225938   6.954   7.942   1.651  0.4661 -2.5661 -1.2898
 7982SOL     OW25939   6.932   1.470   0.047  0.2065  0.1362 -0.2840
 7982SOL    HW125940   6.855   1.419   0.023  0.1417  0.3887 -0.6154
 7982SOL    HW225941   6.930   1.472   0.143 -1.1957  1.6205 -0.3097
 7983SOL     OW25942   5.740   0.035   3.011 -0.7126  0.3367  0.0023
 7983SOL    HW125943   5.665   0.026   3.070 -0.6537 -0.5493 -0.0381
 7983SOL    HW225944   5.702   0.059   2.927 -1.0008 -0.5275 -0.1248
 7984SOL     OW25945   8.392   8.546   2.149 -0.9178  0.4404  0.1907
 7984SOL    HW125946   8.332   8.603   2.197 -1.3975  0.0198  0.0947
 7984SOL    HW225947   8.461   8.525   2.213 -0.8026  1.0280  0.2610
 7985SOL     OW25948   1.665   7.637   0.077 -0.0375  0.5654 -0.2462
 7985SOL    HW125949   1.700   7.725   0.061 -1.2111  0.8918 -1.1107
 7985SOL    HW225950   1.613   7.617  -0.001 -0.1038 -0.7396  0.1155
 7986SOL     OW25951   4.002   0.624   7.094 -0.2933 -0.0625 -0.2596
 7986SOL    HW125952   3.969   0.714   7.093 -0.4863 -0.1071  0.8395
 7986SOL    HW225953   3.935   0.574   7.142  0.7601 -0.3869  0.9286
 7987SOL     OW25954   4.842   7.245   1.656  0.2796  0.3370 -0.5100
 7987SOL    HW125955   4.791   7.324   1.673  0.8067  0.7609 -0.8604
 7987SOL    HW225956   4.812   7.183   1.722  0.5893  1.1609  0.4268
 7988SOL     OW25957   1.574   7.277   1.217  0.1675  0.8524 -0.2410
 7988SOL    HW125958   1.513   7.321   1.158 -0.2775  0.6096  0.0325
 7988SOL    HW225959   1.518   7.232   1.280  0.6359  1.4011  0.5860
 7989SOL     OW25960   3.294   7.054   8.233  0.0280  0.2325  0.2696
 7989SOL    HW125961   3.284   7.029   8.325 -2.1612 -0.4253 -0.0941
 7989SOL    HW225962   3.259   6.979   8.184  0.3436  0.9389 -1.0724
 7990SOL     OW25963   1.054   0.820   1.918  0.4077  0.1543 -0.3701
 7990SOL    HW125964   1.138   0.853   1.885 -0.1389  0.8845 -1.0642
 7990SOL    HW225965   1.065   0.817   2.013  0.7584  1.5719 -0.3486
 7991SOL     OW25966   2.895   2.940   4.606 -0.3816  0.5681  0.2887
 7991SOL    HW125967   2.861   2.987   4.682 -0.8247 -0.0962  0.5088
 7991SOL    HW225968   2.985   2.916   4.630 -0.6848 -0.0708  0.8104
 7992SOL     OW25969   0.121   1.646   0.716  0.3032  0.2616  0.0219
 7992SOL    HW125970   0.046   1.588   0.722 -1.0956  1.8315 -1.3368
 7992SOL    HW225971   0.185   1.608   0.776 -0.6426 -2.4421 -0.5489
 7993SOL     OW25972   0.216   3.952   3.442  0.1987 -0.6306 -0.4523
 7993SOL    HW125973   0.229   3.921   3.531  1.6125  0.7589 -0.1252
 7993SOL    HW225974   0.299   3.936   3.398  0.4309  1.0492 -0.7225
 7994SOL     OW25975   2.500   3.589   3.591  0.4171 -0.0513  0.1524
 7994SOL    HW125976   2.586   3.561   3.621 -0.4060 -1.3224  1.4516
 7994SOL    HW225977   2.509   3.683   3.577  1.8372 -0.0587  0.8828
 7995SOL     OW25978   1.403   3.607   5.690 -1.0631  0.3624  0.1991
 7995SOL    HW125979   1.434   3.624   5.601 -0.2861 -1.2161  0.1179
 7995SOL    HW225980   1.463   3.657   5.746  1.4289 -2.1573  0.0066
 7996SOL     OW25981   7.933   7.056   1.323 -0.1251  0.5501 -0.0844
 7996SOL    HW125982   7.966   6.968   1.338  0.7383  0.9375  0.3859
 7996SOL    HW225983   7.837   7.046   1.320 -0.3561  0.0555  3.6528
 7997SOL     OW25984   1.582   6.410   6.232  0.1734 -0.1023 -0.4080
 7997SOL    HW125985   1.602   6.471   6.161  1.4128  0.0882  0.0871
 7997SOL    HW225986   1.516   6.456   6.284 -1.3663 -0.5864 -1.8500
 7998SOL     OW25987   0.935   6.390   6.595  0.3829 -0.2647 -0.3551
 7998SOL    HW125988   0.918   6.366   6.504  0.2331  0.0411 -0.4071
 7998SOL    HW225989   0.854   6.430   6.625  0.4392 -0.3477 -0.0907
 7999SOL     OW25990   0.024   1.283   0.118 -0.4457 -0.2466  0.0128
 7999SOL    HW125991  -0.060   1.275   0.073 -1.1096  1.4651  0.8284
 7999SOL    HW225992   0.042   1.378   0.119  0.5602 -0.4041  1.4918
 8000SOL     OW25993   0.065   4.484   5.782 -0.5375 -0.4053  0.1022
 8000SOL    HW125994  -0.011   4.490   5.725  0.6989 -2.4574 -1.9575
 8000SOL    HW225995   0.118   4.414   5.744  2.2553  0.7143  1.6156
 8001SOL     OW25996   3.188   7.364   8.248  0.2265  0.4761 -0.4958
 8001SOL    HW125997   3.281   7.383   8.260  0.6367 -1.6278  0.0848
 8001SOL    HW225998   3.182   7.326   8.161  0.1562 -0.6587 -0.0097
 8002SOL     OW25999   3.430   6.522   4.072  0.3991  0.0660  0.2926
 8002SOL    HW126000   3.398   6.612   4.070  0.4850  0.0747 -1.1716
 8002SOL    HW226001   3.412   6.493   4.162  0.1370  1.4459  0.7113
 8003SOL     OW26002   7.462   1.873   2.711  0.3401 -0.3506 -0.2555
 8003SOL    HW126003   7.455   1.787   2.671  0.5287 -1.4437  1.9128
 8003SOL    HW226004   7.444   1.858   2.804 -2.9792  2.4737 -0.2543
 8004SOL     OW26005   0.071   8.415   0.228  0.2042  0.1797 -0.2800
 8004SOL    HW126006   0.042   8.504   0.209 -0.7452 -0.1454 -0.3818
 8004SOL    HW226007   0.166   8.418   0.217  0.5149  1.7769  2.0165
 8005SOL     OW26008   0.598   8.524   3.505  0.0306 -0.2110 -0.1290
 8005SOL    HW126009   0.608   8.562   3.592  0.4421  0.3206 -0.4035
 8005SOL    HW226010   0.506   8.499   3.499  0.1423 -0.8525  0.7004
 8006SOL     OW26011   7.172   2.907   2.906  0.1661  0.0388 -0.4910
 8006SOL    HW126012   7.241   2.850   2.942  1.4009  1.7464 -0.0148
 8006SOL    HW226013   7.208   2.995   2.914 -2.5903  1.1295  0.8916
 8007SOL     OW26014   4.614   3.867   5.160 -0.0689  0.0882 -0.2455
 8007SOL    HW126015   4.663   3.892   5.239 -2.5452  1.1333  1.0643
 8007SOL    HW226016   4.675   3.885   5.088  1.3739  1.6165  1.2502
 8008SOL     OW26017   4.686   6.303   0.123  0.1560  0.4476  0.0540
 8008SOL    HW126018   4.670   6.273   0.034 -2.0283  0.4177  0.4194
 8008SOL    HW226019   4.745   6.378   0.112  0.5405 -0.0213 -1.3321
 8009SOL     OW26020   3.220   0.577   8.696 -0.6634 -0.0429 -0.2418
 8009SOL    HW126021   3.172   0.589   8.614 -1.1438 -1.3483 -0.1716
 8009SOL    HW226022   3.204   0.486   8.720  0.0823  0.1145  0.9224
 8010SOL     OW26023   4.255   4.044   8.137 -0.5071  0.1627 -0.2053
 8010SOL    HW126024   4.219   3.961   8.105 -1.9533  0.9730 -0.7933
 8010SOL    HW226025   4.319   4.018   8.204 -0.2010 -1.4402 -1.0607
 8011SOL     OW26026   1.020   0.931   5.292  0.2137 -0.0185 -0.3946
 8011SOL    HW126027   0.992   0.911   5.202  0.1469 -0.2352 -0.3272
 8011SOL    HW226028   1.049   0.847   5.327  2.3072  0.4249 -0.9261
 8012SOL     OW26029   0.992   3.131   8.121  0.0212  0.2880 -0.1969
 8012SOL    HW126030   0.948   3.217   8.118 -0.7287 -0.0826 -2.7379
 8012SOL    HW226031   1.059   3.137   8.053  0.6554 -0.8252  0.3122
 8013SOL     OW26032   0.385   6.496   2.647 -0.5856 -0.1179 -0.6568
 8013SOL    HW126033   0.333   6.573   2.669 -1.2564 -0.9057  0.6304
 8013SOL    HW226034   0.401   6.453   2.731 -0.1097 -1.3142 -1.3315
 8014SOL     OW26035   1.583   8.714   8.176 -0.0534  0.0723 -0.4453
 8014SOL    HW126036   1.537   8.645   8.224  0.1287 -0.6725 -1.3062
 8014SOL    HW226037   1.515   8.775   8.150  0.0062  1.3453  2.0457
 8015SOL     OW26038   7.034   0.852   1.381 -0.1754 -0.6020  0.3776
 8015SOL    HW126039   7.081   0.831   1.462 -0.5504  0.0422  0.7706
 8015SOL    HW226040   6.948   0.813   1.392  0.4137 -2.2973 -0.5907
 8016SOL     OW26041   1.234   8.572   1.977 -0.1871  0.2223 -0.2524
 8016SOL    HW126042   1.288   8.494   1.966 -1.2098 -0.6645  0.7947
 8016SOL    HW226043   1.154   8.553   1.928 -1.6342 -0.6395  2.3008
 8017SOL     OW26044   7.271   5.580   1.232  0.0199 -0.5314 -0.1289
 8017SOL    HW126045   7.357   5.610   1.260  0.6384 -2.2394 -0.0347
 8017SOL    HW226046   7.279   5.569   1.138 -0.1887 -0.3877 -0.1629
 8018SOL     OW26047   3.615   7.079   4.871 -0.3947 -0.4632 -0.0943
 8018SOL    HW126048   3.662   7.003   4.905 -0.4511 -0.7411 -0.6201
 8018SOL    HW226049   3.527   7.073   4.910  0.0854  0.2282  1.1340
 8019SOL     OW26050   7.969   0.439   7.974 -0.2941  0.1699 -0.6451
 8019SOL    HW126051   7.963   0.512   8.036  2.5385 -0.9106  1.1240
 8019SOL    HW226052   7.898   0.381   7.998 -0.3223  0.6257  0.4327
 8020SOL     OW26053   2.186   1.404   3.640 -0.4630  0.3514 -0.2404
 8020SOL    HW126054   2.117   1.426   3.578  0.0799  0.2578 -0.8888
 8020SOL    HW226055   2.267   1.409   3.589  0.1058  1.3501  0.7210
 8021SOL     OW26056   8.091   3.793   6.265  0.1625 -0.2463  0.1209
 8021SOL    HW126057   8.012   3.749   6.297  0.0011 -0.2761 -0.3167
 8021SOL    HW226058   8.060   3.854   6.199  0.4977 -0.1966  0.0079
 8022SOL     OW26059   4.572   3.738   6.441 -0.0501 -0.3031  0.2029
 8022SOL    HW126060   4.627   3.668   6.476 -0.3067 -0.4882  0.2325
 8022SOL    HW226061   4.523   3.771   6.517 -0.4344 -0.5494  0.0638
 8023SOL     OW26062   3.781   0.091   5.185 -0.2271 -0.0014 -0.2075
 8023SOL    HW126063   3.710   0.087   5.121 -1.1736 -0.4270  0.8244
 8023SOL    HW226064   3.807   0.183   5.188 -1.4927  0.3569  0.1823
 8024SOL     OW26065   6.750   0.867   6.229 -0.2248  0.2863 -0.5465
 8024SOL    HW126066   6.682   0.935   6.238  0.5224  0.9663  0.0678
 8024SOL    HW226067   6.826   0.903   6.274  1.0452  0.2151 -2.5264
 8025SOL     OW26068   0.610   5.202   8.127 -0.1109  0.1875  0.1643
 8025SOL    HW126069   0.608   5.244   8.213  0.4426 -0.9807  0.7654
 8025SOL    HW226070   0.631   5.110   8.145 -0.4926 -0.1891 -1.1769
 8026SOL     OW26071   6.640   7.365   4.866  0.5020  0.4775 -0.3694
 8026SOL    HW126072   6.561   7.338   4.911  0.5700  1.0348  0.1072
 8026SOL    HW226073   6.684   7.284   4.842 -0.2949  0.1680 -0.7856
 8027SOL     OW26074   8.770   5.068   4.590  0.1452  0.1727 -0.2390
 8027SOL    HW126075   8.703   5.033   4.649 -1.8402  3.6726 -0.1340
 8027SOL    HW226076   8.852   5.033   4.625 -1.1494 -0.0189  3.0622
 8028SOL     OW26077   6.363   4.885   5.558 -0.3233 -0.3742 -0.1853
 8028SOL    HW126078   6.367   4.898   5.653 -0.1218  1.0667 -0.3639
 8028SOL    HW226079   6.270   4.868   5.540 -0.9770  2.4977 -0.0359
 8029SOL     OW26080   1.637   2.962   4.156 -0.1767  0.0035 -0.5395
 8029SOL    HW126081   1.583   2.888   4.183 -1.9421  1.9597  1.7276
 8029SOL    HW226082   1.579   3.016   4.101 -0.2256  1.5141  0.9112
 8030SOL     OW26083   2.849   8.020   6.753  0.4211 -0.1684 -0.0835
 8030SOL    HW126084   2.767   7.980   6.783  0.2226  1.0204  1.0756
 8030SOL    HW226085   2.913   7.949   6.756 -0.8279 -1.5331 -2.4978
 8031SOL     OW26086   0.753   1.480   3.224 -0.2499  0.6103  0.2446
 8031SOL    HW126087   0.806   1.414   3.180 -1.6842 -0.0892 -0.5069
 8031SOL    HW226088   0.809   1.558   3.226  0.6852  0.0034 -0.8007
 8032SOL     OW26089   0.253   7.703   1.980  0.2745 -0.3043 -0.1606
 8032SOL    HW126090   0.299   7.782   2.010 -1.1270 -0.2049  1.9687
 8032SOL    HW226091   0.280   7.692   1.889  1.2398  2.0925 -0.2285
 8033SOL     OW26092   4.525   8.183   6.679  0.3739  0.2847 -0.5321
 8033SOL    HW126093   4.583   8.191   6.755  0.6992  1.3027 -0.8698
 8033SOL    HW226094   4.492   8.272   6.665 -2.9526 -0.5497  0.9259
 8034SOL     OW26095   8.279   7.751   1.237 -0.2815 -0.6193 -0.1173
 8034SOL    HW126096   8.241   7.694   1.170 -1.1468  1.0604 -1.1373
 8034SOL    HW226097   8.217   7.823   1.245  0.4595 -0.1100  1.5786
 8035SOL     OW26098   5.064   6.705   0.319  0.4964 -0.0713 -0.2981
 8035SOL    HW126099   5.088   6.674   0.231 -0.1475 -1.8527  0.1142
 8035SOL    HW226100   5.147   6.721   0.362  0.8846 -1.6010 -0.4348
 8036SOL     OW26101   7.683   4.952   4.172 -0.2257 -0.1618  0.4949
 8036SOL    HW126102   7.635   4.870   4.186  1.9434 -1.5538  0.1946
 8036SOL    HW226103   7.658   5.007   4.246  0.8892 -2.4270  2.7069
 8037SOL     OW26104   3.037   7.563   1.746  0.2994 -0.0609 -0.2480
 8037SOL    HW126105   3.107   7.537   1.806  1.6337  0.1106 -1.6633
 8037SOL    HW226106   3.032   7.658   1.754  0.6847 -0.0050 -0.5814
 8038SOL     OW26107   2.240   1.480   0.229 -0.0408 -0.5692 -0.2537
 8038SOL    HW126108   2.155   1.507   0.262  0.0344  0.4775 -0.9002
 8038SOL    HW226109   2.293   1.560   0.228  0.8304 -1.1269 -0.2335
 8039SOL     OW26110   8.870   1.255   3.117  0.7887  0.5589  0.1117
 8039SOL    HW126111   8.790   1.304   3.100 -1.0056 -1.8321  1.0800
 8039SOL    HW226112   8.880   1.258   3.212 -0.9955 -3.0426  0.5936
 8040SOL     OW26113   2.753   1.466   8.695  0.0075  0.4278  0.7448
 8040SOL    HW126114   2.710   1.455   8.610  2.1255 -4.2231 -0.0875
 8040SOL    HW226115   2.792   1.553   8.691 -0.8132  0.7973 -2.6888
 8041SOL     OW26116   8.099   3.540   2.676  0.4717  0.0285 -0.1231
 8041SOL    HW126117   8.158   3.585   2.615 -0.8874  0.0170 -1.4969
 8041SOL    HW226118   8.136   3.558   2.762  0.3393  3.2623 -0.6461
 8042SOL     OW26119   7.166   1.322   2.100 -0.0436  0.3181  0.1916
 8042SOL    HW126120   7.100   1.254   2.086 -1.2556  1.3106  0.8276
 8042SOL    HW226121   7.214   1.327   2.018 -2.0778  0.9123 -1.0336
 8043SOL     OW26122   6.755   0.990   0.258 -0.4433  0.3151 -0.0595
 8043SOL    HW126123   6.843   0.962   0.233 -1.1899 -0.1788 -2.4252
 8043SOL    HW226124   6.764   1.021   0.348  1.9584 -0.4993  0.0522
 8044SOL     OW26125   7.639   5.671   1.500 -0.1499  0.2244 -0.1484
 8044SOL    HW126126   7.573   5.638   1.439 -0.3912  1.9337 -0.8439
 8044SOL    HW226127   7.621   5.625   1.582 -2.2721  0.7121 -0.2953
 8045SOL     OW26128   1.003   2.782   0.840 -0.2509  0.0505 -0.1446
 8045SOL    HW126129   1.060   2.836   0.895 -1.5381  1.8239 -0.4594
 8045SOL    HW226130   0.948   2.734   0.902  1.1649 -1.2772  0.1465
 8046SOL     OW26131   0.044   5.240   7.246 -0.2433 -0.1562 -0.0902
 8046SOL    HW126132   0.028   5.194   7.328  0.1805 -2.1749 -1.0733
 8046SOL    HW226133   0.135   5.272   7.253 -0.0937 -0.6206  0.0916
 8047SOL     OW26134   2.691   8.574   7.138 -0.1255 -0.8164 -0.2253
 8047SOL    HW126135   2.785   8.586   7.125 -0.0711 -0.7391  0.2251
 8047SOL    HW226136   2.676   8.481   7.118  0.1532 -0.9799  0.2995
 8048SOL     OW26137   3.307   3.762   3.431  0.4594 -0.3922 -0.4749
 8048SOL    HW126138   3.231   3.787   3.483  1.5001  0.1996  0.8247
 8048SOL    HW226139   3.371   3.832   3.446  0.9180 -0.3438 -2.3561
 8049SOL     OW26140   2.607   2.690   8.465  0.0293 -0.1194 -0.0378
 8049SOL    HW126141   2.600   2.603   8.505  1.8443 -1.0184 -1.5260
 8049SOL    HW226142   2.627   2.749   8.538  0.0015 -1.1513  0.8252
 8050SOL     OW26143   3.749   2.716   4.119 -0.3178 -0.1042 -0.2222
 8050SOL    HW126144   3.672   2.660   4.115 -0.2250 -0.2603  0.1769
 8050SOL    HW226145   3.822   2.659   4.096 -0.0616 -0.4659  1.3722
 8051SOL     OW26146   3.713   3.519   3.716  0.3012 -0.2372  0.4708
 8051SOL    HW126147   3.619   3.538   3.721  0.3069 -0.4894  2.8677
 8051SOL    HW226148   3.724   3.474   3.632 -1.3257  1.6449 -0.8498
 8052SOL     OW26149   0.016   1.278   3.382  1.0487 -0.2673 -0.0405
 8052SOL    HW126150   0.093   1.234   3.419  0.3972 -0.3450  1.2778
 8052SOL    HW226151   0.026   1.369   3.409 -0.2753 -0.6313  1.8391
 8053SOL     OW26152   6.210   1.130   2.602  0.1159 -0.5101  0.0157
 8053SOL    HW126153   6.146   1.104   2.535 -2.5659  0.2079  2.1003
 8053SOL    HW226154   6.236   1.049   2.644  0.4095 -0.7984 -0.7144
 8054SOL     OW26155   5.360   3.067   5.836  0.2347  0.5857 -0.6053
 8054SOL    HW126156   5.370   3.101   5.925 -1.1769  1.9724 -0.9280
 8054SOL    HW226157   5.450   3.052   5.805  0.7992  1.5888  0.5003
 8055SOL     OW26158   4.792   0.971   0.569  0.3010 -0.0468 -0.1147
 8055SOL    HW126159   4.790   0.927   0.483 -2.2044 -3.5643  1.4980
 8055SOL    HW226160   4.705   0.958   0.604  1.0905  1.7476  2.8067
 8056SOL     OW26161   8.873   8.110   0.649 -0.5568  0.6293 -0.3247
 8056SOL    HW126162   8.823   8.122   0.568 -2.5299 -3.7973 -0.0290
 8056SOL    HW226163   8.811   8.130   0.718  0.1855  1.4102  0.1367
 8057SOL     OW26164   2.547   6.701   0.553 -0.0268 -0.5720 -0.0506
 8057SOL    HW126165   2.514   6.720   0.465 -2.3838 -0.9146  0.6922
 8057SOL    HW226166   2.640   6.725   0.550 -0.3251  0.5023 -2.2886
 8058SOL     OW26167   4.032   7.381   0.915 -0.3661  0.3494 -0.1865
 8058SOL    HW126168   4.115   7.376   0.868  0.0784 -3.2013  0.7103
 8058SOL    HW226169   3.967   7.351   0.852 -0.2048 -1.5176  0.4891
 8059SOL     OW26170   4.654   5.710   5.244  0.3294  0.1412  0.5604
 8059SOL    HW126171   4.711   5.783   5.267  0.4314  0.6856 -1.2318
 8059SOL    HW226172   4.703   5.632   5.269  1.0683  0.6504  0.7151
 8060SOL     OW26173   5.578   5.989   7.718  0.3254  0.4481 -0.3277
 8060SOL    HW126174   5.483   5.988   7.705  0.3162  0.1729 -0.2493
 8060SOL    HW226175   5.593   6.062   7.777  0.2602  1.0810 -1.0769
 8061SOL     OW26176   7.083   1.616   1.338 -0.0062 -0.2530  0.2716
 8061SOL    HW126177   7.124   1.569   1.411  2.1208  2.9012  1.3063
 8061SOL    HW226178   7.120   1.575   1.259  1.2682 -0.7888  1.1100
 8062SOL     OW26179   4.980   7.220   6.077 -0.2455  0.1063 -0.3079
 8062SOL    HW126180   5.008   7.164   6.004 -1.4857 -0.5207 -0.3388
 8062SOL    HW226181   4.976   7.161   6.152  0.2481  0.5792  0.0962
 8063SOL     OW26182   1.982   4.170   0.081  0.0199 -0.0202 -0.1778
 8063SOL    HW126183   1.923   4.216   0.141  2.2488  1.1605  1.2620
 8063SOL    HW226184   1.926   4.106   0.037 -1.9277 -0.4457  2.6166
 8064SOL     OW26185   7.263   6.590   0.495  0.0872  0.3145 -0.6367
 8064SOL    HW126186   7.302   6.629   0.417  2.1656 -0.7150 -0.1871
 8064SOL    HW226187   7.228   6.506   0.465  1.5792 -0.4347 -0.3573
 8065SOL     OW26188   7.280   2.973   7.924 -0.3138 -0.1217 -0.2067
 8065SOL    HW126189   7.357   2.989   7.978 -0.4556 -0.0927 -0.0081
 8065SOL    HW226190   7.230   3.054   7.929 -1.7246 -1.0118  1.9543
 8066SOL     OW26191   4.097   6.803   4.985 -0.1996 -0.1389  0.1296
 8066SOL    HW126192   4.109   6.880   4.930 -0.3183 -1.1801 -1.4178
 8066SOL    HW226193   4.003   6.802   5.005  0.0639  1.0160  1.5878
 8067SOL     OW26194   3.716   4.386   3.232  0.0671 -0.0543  0.5411
 8067SOL    HW126195   3.683   4.297   3.220 -0.7768 -0.0159  2.2803
 8067SOL    HW226196   3.637   4.439   3.244  0.6079  0.7193  0.7285
 8068SOL     OW26197   3.648   1.848   3.681  0.5089  0.0702  0.0615
 8068SOL    HW126198   3.665   1.771   3.626  1.3393  0.2504  0.0522
 8068SOL    HW226199   3.730   1.862   3.728  0.6275  1.4153 -0.5059
 8069SOL     OW26200   1.582   3.501   8.569  0.3443 -0.0993  0.0104
 8069SOL    HW126201   1.523   3.511   8.494  1.0164  1.3166 -0.3887
 8069SOL    HW226202   1.572   3.583   8.618  0.8704 -0.4670  0.7497
 8070SOL     OW26203   2.796   5.974   4.588  0.1476  0.2639  0.7482
 8070SOL    HW126204   2.831   6.013   4.507  2.1168 -1.2645  0.7830
 8070SOL    HW226205   2.860   5.999   4.655  0.6013 -1.6049  1.0606
 8071SOL     OW26206   0.946   5.726   5.209  0.2562 -0.3565  0.2123
 8071SOL    HW126207   1.024   5.690   5.168 -0.0377 -0.2593 -0.4395
 8071SOL    HW226208   0.964   5.720   5.303  1.4014  0.4665  0.0658
 8072SOL     OW26209   1.654   2.311   0.007  0.3969  0.5979  0.5372
 8072SOL    HW126210   1.660   2.301   0.102  1.3588  0.0445  0.4253
 8072SOL    HW226211   1.585   2.250  -0.019 -0.4319  1.3220  0.9475
 8073SOL     OW26212   0.531   5.182   5.284 -0.4249  0.4322  1.0350
 8073SOL    HW126213   0.606   5.155   5.231 -0.3437 -1.0626  1.8653
 8073SOL    HW226214   0.566   5.250   5.342  0.0669  0.3895  0.7940
 8074SOL     OW26215   1.188   7.622   2.358 -0.0881 -0.4665 -0.0220
 8074SOL    HW126216   1.100   7.611   2.393  0.6044 -0.7513  1.7305
 8074SOL    HW226217   1.216   7.708   2.390  1.2854 -1.5515  1.9147
 8075SOL     OW26218   1.894   4.393   6.572 -0.0245 -0.4559 -0.3382
 8075SOL    HW126219   1.936   4.390   6.658 -0.9122 -1.6532  0.0958
 8075SOL    HW226220   1.959   4.432   6.514  0.2077  1.3867  1.0709
 8076SOL     OW26221   7.428   1.223   6.200 -0.4128 -0.2603  0.2592
 8076SOL    HW126222   7.458   1.303   6.157  0.3156  0.5883  2.2411
 8076SOL    HW226223   7.502   1.163   6.194 -0.8947 -0.7522 -1.0688
 8077SOL     OW26224   7.859   2.945   7.367 -0.4413 -0.2696 -0.1843
 8077SOL    HW126225   7.811   2.879   7.416  0.9435 -0.2769  1.2408
 8077SOL    HW226226   7.918   2.895   7.310 -2.0466 -0.2619 -1.9650
 8078SOL     OW26227   4.371   3.669   2.342 -0.1491 -0.2036 -0.4115
 8078SOL    HW126228   4.311   3.744   2.334 -1.0277 -0.9150 -0.6587
 8078SOL    HW226229   4.435   3.683   2.273 -0.8067 -0.1170 -1.0210
 8079SOL     OW26230   1.584   0.176   0.033 -0.5547  0.0625  0.4219
 8079SOL    HW126231   1.498   0.207   0.060 -0.5028  1.0033 -0.4309
 8079SOL    HW226232   1.632   0.255   0.010  0.2564 -0.5122  0.0814
 8080SOL     OW26233   6.195   0.489   2.957  0.4457 -0.4285 -0.0352
 8080SOL    HW126234   6.103   0.463   2.954  0.6509 -1.0413 -1.9083
 8080SOL    HW226235   6.242   0.408   2.975  0.6108  0.0611  2.0739
 8081SOL     OW26236   2.385   8.403   8.230  0.3698  0.3094  0.0137
 8081SOL    HW126237   2.339   8.380   8.311  1.6943 -2.1335  0.1471
 8081SOL    HW226238   2.456   8.461   8.258 -1.4626  2.7312  0.0082
 8082SOL     OW26239   3.019   3.730   7.057 -0.5050  0.4697 -0.4319
 8082SOL    HW126240   3.080   3.803   7.048  0.6226 -0.2152  1.2057
 8082SOL    HW226241   3.060   3.659   7.007 -0.1554  0.1400  0.3077
 8083SOL     OW26242   0.875   0.185   4.777  0.3395  0.1205  0.0440
 8083SOL    HW126243   0.866   0.281   4.775  0.5204  0.1298 -2.6090
 8083SOL    HW226244   0.785   0.153   4.788  0.0169  0.5951 -1.0603
 8084SOL     OW26245   6.600   0.470   2.397  0.0753 -1.2142  0.0337
 8084SOL    HW126246   6.538   0.450   2.327 -1.4039  1.4597  0.4347
 8084SOL    HW226247   6.552   0.452   2.478 -1.1145  2.6795  0.3977
 8085SOL     OW26248   5.333   7.931   2.943 -0.4649  0.1008  0.9238
 8085SOL    HW126249   5.400   7.876   2.984  1.4241  1.0351 -0.7579
 8085SOL    HW226250   5.365   8.020   2.954 -0.8987  0.4968 -0.8092
 8086SOL     OW26251   6.743   6.849   6.169  0.4398 -0.0576 -0.8616
 8086SOL    HW126252   6.677   6.866   6.236 -0.1480 -0.6956 -1.2532
 8086SOL    HW226253   6.762   6.935   6.131  1.2237  0.4006  0.4984
 8087SOL     OW26254   5.973   6.472   7.569 -0.3733 -0.1810 -0.0437
 8087SOL    HW126255   5.924   6.401   7.612  0.6723  0.6067  2.6688
 8087SOL    HW226256   6.025   6.428   7.502 -2.6538 -1.3996 -1.1324
 8088SOL     OW26257   1.669   1.342   4.914 -0.8328  0.4245  0.4963
 8088SOL    HW126258   1.671   1.311   4.823 -2.0889  1.1704  0.1929
 8088SOL    HW226259   1.629   1.270   4.963 -1.0592  0.4099  0.2914
 8089SOL     OW26260   8.866   8.726   0.914  0.2505  0.1536  0.1204
 8089SOL    HW126261   8.928   8.747   0.844 -0.5764 -0.4743 -0.8174
 8089SOL    HW226262   8.921   8.718   0.992  1.2584  0.3153 -0.5462
 8090SOL     OW26263   6.877   3.681   7.917 -0.8942  0.3225  0.4615
 8090SOL    HW126264   6.959   3.671   7.868 -0.5973  2.6516  0.3691
 8090SOL    HW226265   6.814   3.627   7.868  0.3747 -0.8812  0.0826
 8091SOL     OW26266   7.971   7.315   1.682 -0.0212 -0.4140  0.6976
 8091SOL    HW126267   8.039   7.328   1.748  0.0741 -0.9234  0.7028
 8091SOL    HW226268   8.017   7.279   1.606 -0.0627  0.5729  0.1966
 8092SOL     OW26269   8.629   0.578   5.669 -0.2320  0.0988  0.6316
 8092SOL    HW126270   8.621   0.543   5.758  1.8946 -0.7684  0.5334
 8092SOL    HW226271   8.632   0.501   5.613 -0.3844  0.6054 -0.0894
 8093SOL     OW26272   8.399   3.938   3.978 -0.3286  0.4749 -0.0139
 8093SOL    HW126273   8.436   3.849   3.975 -0.7598  0.2805  0.3407
 8093SOL    HW226274   8.463   3.988   4.029 -0.5403  0.1436  0.5856
 8094SOL     OW26275   4.756   1.041   1.068  0.1386  0.3180 -0.5237
 8094SOL    HW126276   4.815   1.110   1.101 -0.0370 -0.1712  0.8735
 8094SOL    HW226277   4.701   1.086   1.004  0.6532  1.2630 -0.3287
 8095SOL     OW26278   8.830   0.706   7.573  0.3969  0.3872 -0.1906
 8095SOL    HW126279   8.926   0.707   7.577  0.5840  0.6413 -2.7080
 8095SOL    HW226280   8.809   0.615   7.551  0.1549  0.5553 -0.6688
 8096SOL     OW26281   2.077   7.512   6.635  0.1377 -0.0761 -0.6552
 8096SOL    HW126282   2.102   7.421   6.618  1.0531  0.2547 -1.1837
 8096SOL    HW226283   2.032   7.540   6.554  0.4477  0.1337 -0.7581
 8097SOL     OW26284   6.272   7.091   4.468  0.4918  0.6145  0.5697
 8097SOL    HW126285   6.289   7.032   4.542 -0.7724  1.1972  1.3531
 8097SOL    HW226286   6.335   7.063   4.401  1.9700  0.3447  1.9996
 8098SOL     OW26287   1.548   1.091   1.039 -0.1089 -0.2526 -0.1228
 8098SOL    HW126288   1.562   1.155   0.969 -1.2878 -0.6514 -0.7543
 8098SOL    HW226289   1.455   1.070   1.033 -0.7099  1.1143  2.7801
 8099SOL     OW26290   4.651   0.944   2.838  0.4293 -0.5327 -0.4966
 8099SOL    HW126291   4.601   0.865   2.816  0.1722 -0.2538 -0.9385
 8099SOL    HW226292   4.685   0.975   2.754 -2.3314  1.7594 -0.9305
 8100SOL     OW26293   3.251   1.264   5.951 -0.3881  0.0756 -0.1580
 8100SOL    HW126294   3.221   1.349   5.918 -0.3683  0.2116  0.1751
 8100SOL    HW226295   3.336   1.283   5.991  0.1925 -0.3144 -1.1518
 8101SOL     OW26296   5.631   2.799   3.053  0.2677  0.0110  0.0035
 8101SOL    HW126297   5.558   2.846   3.014  0.1368 -0.5709 -0.4843
 8101SOL    HW226298   5.709   2.837   3.012  0.0724 -1.7562 -2.2627
 8102SOL     OW26299   4.176   8.504   1.966  0.7453 -0.7564 -0.0907
 8102SOL    HW126300   4.152   8.436   2.029 -0.8433  0.6564  0.9235
 8102SOL    HW226301   4.239   8.559   2.012  0.9385 -0.7273 -0.3853
 8103SOL     OW26302   0.202   1.541   2.399 -0.8216 -0.3760 -0.0318
 8103SOL    HW126303   0.109   1.547   2.421 -1.0302 -1.2465 -0.6664
 8103SOL    HW226304   0.210   1.463   2.345  0.1841  0.0331 -0.5077
 8104SOL     OW26305   8.792   6.006   0.443 -0.0126  0.1806 -0.2449
 8104SOL    HW126306   8.803   5.960   0.526  1.1386  1.7666  0.5237
 8104SOL    HW226307   8.879   6.006   0.403 -0.1555  1.0141 -0.5834
 8105SOL     OW26308   4.908   7.100   1.007  0.5753 -0.1801 -0.2895
 8105SOL    HW126309   4.981   7.064   1.058  0.7101  0.6215  0.0986
 8105SOL    HW226310   4.930   7.193   0.997 -0.0133 -0.0961 -0.8346
 8106SOL     OW26311   3.260   0.685   6.370  0.7723  0.0840  0.3736
 8106SOL    HW126312   3.270   0.744   6.296 -0.2228 -0.1407  0.0424
 8106SOL    HW226313   3.343   0.637   6.374  0.3761 -0.8564 -1.4571
 8107SOL     OW26314   4.002   4.083   6.544 -0.5296  0.1990 -1.5361
 8107SOL    HW126315   3.911   4.095   6.572  0.0422  0.2494  0.4594
 8107SOL    HW226316   4.045   4.165   6.570  0.9762 -1.4235  1.7317
 8108SOL     OW26317   3.521   0.902   7.277 -0.1082 -0.0585 -0.1419
 8108SOL    HW126318   3.462   0.846   7.328  2.3496 -2.4924  0.2361
 8108SOL    HW226319   3.569   0.952   7.342 -1.6214  1.9463 -0.4532
 8109SOL     OW26320   4.711   5.472   2.929  0.1290  0.2787 -0.2454
 8109SOL    HW126321   4.783   5.469   2.867 -0.0119  1.4074 -0.4759
 8109SOL    HW226322   4.637   5.508   2.880 -0.7044 -1.1456 -0.1026
 8110SOL     OW26323   6.923   1.434   0.320  0.2283  0.1221 -0.1658
 8110SOL    HW126324   6.846   1.392   0.282 -0.5437  1.1766  0.1731
 8110SOL    HW226325   6.987   1.364   0.329 -0.9080 -0.9029  0.1297
 8111SOL     OW26326   8.515   2.170   0.486 -0.2367 -0.2031  0.4504
 8111SOL    HW126327   8.596   2.216   0.462 -0.2697 -0.6373 -0.5512
 8111SOL    HW226328   8.459   2.238   0.523  1.5108 -0.3408  3.6476
 8112SOL     OW26329   0.057   0.925   7.794 -0.1424  0.4492  0.0532
 8112SOL    HW126330  -0.030   0.884   7.799  0.2722 -0.3093  2.1852
 8112SOL    HW226331   0.044   1.001   7.738 -2.1092  0.1580  0.0233
 8113SOL     OW26332   1.980   6.409   3.013 -0.3211 -0.2518  0.1025
 8113SOL    HW126333   1.988   6.378   3.103 -1.1189 -0.3265  0.1545
 8113SOL    HW226334   2.039   6.353   2.962  0.3811  0.0020  0.6191
 8114SOL     OW26335   7.805   5.759   0.766  0.5290  0.3366  0.7247
 8114SOL    HW126336   7.786   5.732   0.856  0.8633 -2.0385  0.1705
 8114SOL    HW226337   7.897   5.738   0.753 -0.0523 -1.6381 -0.8207
 8115SOL     OW26338   2.939   7.303   6.649 -0.4925  0.5958  0.9534
 8115SOL    HW126339   2.895   7.375   6.603  0.1761  0.4940  0.1396
 8115SOL    HW226340   2.970   7.343   6.730 -1.0097  0.9683  0.9794
 8116SOL     OW26341   7.969   1.805   1.916 -0.1433 -0.1296  0.2993
 8116SOL    HW126342   8.054   1.762   1.927  0.5941  1.1531 -0.1467
 8116SOL    HW226343   7.940   1.823   2.005  0.4262  0.0925  0.4484
 8117SOL     OW26344   6.052   4.548   2.725 -0.3387 -0.0728  0.1980
 8117SOL    HW126345   6.121   4.515   2.783 -1.0565  1.0288  1.7312
 8117SOL    HW226346   6.027   4.471   2.673  1.4147 -0.7056  0.2255
 8118SOL     OW26347   4.486   8.672   2.228  0.5820  0.6810  0.0312
 8118SOL    HW126348   4.572   8.675   2.270 -0.3305  0.6049  2.0530
 8118SOL    HW226349   4.466   8.579   2.221  0.5379  0.7035 -0.1440
 8119SOL     OW26350   7.943   1.122   2.848 -0.4898  0.2553 -0.6465
 8119SOL    HW126351   7.940   1.216   2.834 -1.5312  0.3038 -0.2306
 8119SOL    HW226352   7.968   1.086   2.763 -0.0824  0.9012 -0.8071
 8120SOL     OW26353   7.658   7.741   8.106  0.0518 -1.1430  0.2570
 8120SOL    HW126354   7.687   7.783   8.187 -1.1844  0.8046 -0.2547
 8120SOL    HW226355   7.617   7.660   8.136  1.0667 -1.2761  1.4175
 8121SOL     OW26356   3.200   2.344   7.026 -0.1592  0.1082  0.0170
 8121SOL    HW126357   3.242   2.420   6.986 -1.6968 -0.6015 -3.3051
 8121SOL    HW226358   3.141   2.380   7.092  0.4939  1.6020 -0.1753
 8122SOL     OW26359   8.282   1.699   2.805  0.2666 -0.2684  0.1411
 8122SOL    HW126360   8.212   1.751   2.844  1.1988  1.2561 -0.1697
 8122SOL    HW226361   8.305   1.745   2.724  1.0806 -1.1984 -0.1860
 8123SOL     OW26362   1.484   5.903   2.875 -0.3000 -0.3159  0.0723
 8123SOL    HW126363   1.573   5.928   2.900  0.4070 -1.3606 -1.2175
 8123SOL    HW226364   1.466   5.825   2.928 -1.0938  0.7761  1.4717
 8124SOL     OW26365   8.766   7.112   1.551  0.4472  0.0209 -0.4783
 8124SOL    HW126366   8.820   7.144   1.624 -1.9723 -1.5266  2.2183
 8124SOL    HW226367   8.729   7.191   1.512  1.1926  0.8884  0.4996
 8125SOL     OW26368   1.032   7.976   2.283 -0.0115 -0.0694  0.2833
 8125SOL    HW126369   0.978   7.900   2.261 -1.8960  0.8832  1.4413
 8125SOL    HW226370   1.044   8.022   2.199  2.6358 -2.4321 -0.8056
 8126SOL     OW26371   7.865   2.721   1.582 -0.5433 -0.1686  0.1014
 8126SOL    HW126372   7.928   2.786   1.551 -0.2225 -0.1400  0.8003
 8126SOL    HW226373   7.787   2.737   1.529 -0.0597 -0.0196 -0.5790
 8127SOL     OW26374   6.901   1.008   6.610  0.0305  0.6581 -0.5818
 8127SOL    HW126375   6.885   0.932   6.555  0.4160  1.9509 -2.5882
 8127SOL    HW226376   6.821   1.060   6.602  0.5004  1.3584 -0.7999
 8128SOL     OW26377   1.990   1.501   8.782 -0.2625 -0.3851 -0.4051
 8128SOL    HW126378   2.043   1.559   8.836 -0.7875  1.5863 -1.8994
 8128SOL    HW226379   2.046   1.479   8.708 -0.4439 -0.8879 -0.3952
 8129SOL     OW26380   1.370   3.230   4.396  0.0045 -0.1289 -0.5346
 8129SOL    HW126381   1.416   3.261   4.474  1.1309  1.2054 -1.6806
 8129SOL    HW226382   1.304   3.297   4.379 -0.0337 -0.2559 -0.8947
 8130SOL     OW26383   1.087   1.110   6.336  0.0189  0.4417  0.2248
 8130SOL    HW126384   1.012   1.069   6.294  0.8547 -0.3326 -0.5407
 8130SOL    HW226385   1.140   1.144   6.264  0.5738  0.6786  0.7301
 8131SOL     OW26386   6.598   7.851   8.199 -0.0103 -0.4565  0.1583
 8131SOL    HW126387   6.607   7.760   8.171  2.4400 -0.2445 -0.0336
 8131SOL    HW226388   6.625   7.851   8.290  0.7622  0.1610 -0.0535
 8132SOL     OW26389   1.643   8.818   5.173  0.0504  0.2793 -0.4336
 8132SOL    HW126390   1.717   8.831   5.115  0.5267 -1.3591 -0.2291
 8132SOL    HW226391   1.566   8.838   5.120  0.5660  0.6552 -1.0438
 8133SOL     OW26392   6.656   7.067   6.693  0.3984 -0.5178 -0.0179
 8133SOL    HW126393   6.623   6.998   6.751 -0.3732 -0.4380 -0.3510
 8133SOL    HW226394   6.583   7.086   6.634  0.5638  0.6456  0.1233
 8134SOL     OW26395   0.365   7.377   3.566 -0.1673 -0.1478  0.0774
 8134SOL    HW126396   0.412   7.334   3.494  1.5740  0.4474  0.8130
 8134SOL    HW226397   0.431   7.389   3.634 -1.3980  0.7712  1.1558
 8135SOL     OW26398   1.607   2.377   0.821  0.1514  0.0511 -0.1741
 8135SOL    HW126399   1.560   2.415   0.895  0.8938 -0.6386  0.6807
 8135SOL    HW226400   1.549   2.307   0.789  0.2721 -0.3337  0.4270
 8136SOL     OW26401   0.683   2.465   2.175 -0.0554 -0.1361 -0.6907
 8136SOL    HW126402   0.671   2.370   2.168 -0.3498 -0.0896 -0.8443
 8136SOL    HW226403   0.666   2.497   2.086  1.9155 -0.1358 -1.1151
 8137SOL     OW26404   5.257   0.587   2.878  0.3675 -0.1115 -0.1983
 8137SOL    HW126405   5.329   0.565   2.937 -1.9200  1.0272  3.3231
 8137SOL    HW226406   5.201   0.509   2.878  0.1018  0.0742 -0.5351
 8138SOL     OW26407   0.444   4.706   0.463  0.0825 -0.1670  0.4403
 8138SOL    HW126408   0.513   4.719   0.528 -0.1184 -1.3284  0.9098
 8138SOL    HW226409   0.367   4.684   0.515 -1.2463  3.1737  0.0739
 8139SOL     OW26410   6.855   6.765   2.080 -0.0209  0.2576  0.3707
 8139SOL    HW126411   6.829   6.856   2.094  1.4495  1.3881 -3.1151
 8139SOL    HW226412   6.938   6.757   2.127 -0.6554  0.3500  1.5444
 8140SOL     OW26413   8.445   5.827   0.165  0.0655 -0.0264 -0.2205
 8140SOL    HW126414   8.539   5.832   0.184  0.3387 -3.6772  0.1777
 8140SOL    HW226415   8.434   5.740   0.125 -2.9712  0.8460 -1.5224
 8141SOL     OW26416   6.113   5.415   6.624  0.0386 -0.5884 -0.0323
 8141SOL    HW126417   6.040   5.477   6.630 -1.3405 -2.1911  0.4427
 8141SOL    HW226418   6.169   5.451   6.554 -0.4364  1.4181  0.5612
 8142SOL     OW26419   2.939   2.345   8.006 -0.3944  0.3861 -0.4959
 8142SOL    HW126420   2.851   2.348   8.043 -0.1658  1.6381  0.0035
 8142SOL    HW226421   2.961   2.252   8.003 -1.6436  0.0750 -0.4348
 8143SOL     OW26422   0.737   0.520   7.297 -0.0468 -0.0527  0.2267
 8143SOL    HW126423   0.683   0.553   7.225 -1.4032  0.2686  1.3426
 8143SOL    HW226424   0.738   0.425   7.286 -2.3360 -0.2475  1.1242
 8144SOL     OW26425   1.286   7.939   4.055  0.1159 -0.0201  0.5338
 8144SOL    HW126426   1.299   7.972   4.143  0.7139 -0.8968  0.7880
 8144SOL    HW226427   1.360   7.974   4.004 -0.4315  0.7944  0.2764
 8145SOL     OW26428   6.350   0.171   0.922  0.1712  0.0307 -0.1603
 8145SOL    HW126429   6.406   0.101   0.887 -1.1692 -0.8279 -0.6517
 8145SOL    HW226430   6.263   0.132   0.928  0.0897  0.3756  3.3544
 8146SOL     OW26431   6.573   8.307   6.903  0.5692 -0.1407  0.1721
 8146SOL    HW126432   6.614   8.380   6.857  1.4556  0.5743  1.9642
 8146SOL    HW226433   6.645   8.265   6.951  0.1028 -2.2867 -0.8528
 8147SOL     OW26434   1.917   1.963   6.071  0.7038 -0.2897  0.4664
 8147SOL    HW126435   1.879   1.884   6.031 -1.3198 -2.0301  5.0858
 8147SOL    HW226436   1.867   2.035   6.035  0.0615 -1.5053 -1.1810
 8148SOL     OW26437   0.028   2.315   0.654  0.7301  0.2293 -0.0268
 8148SOL    HW126438   0.053   2.406   0.637  1.5489 -0.1109 -0.6964
 8148SOL    HW226439  -0.023   2.319   0.735 -1.0382  1.5712 -1.1174
 8149SOL     OW26440   6.249   6.437   4.172  0.3752 -0.0127 -0.0148
 8149SOL    HW126441   6.249   6.448   4.077 -0.5806  0.6850  0.0570
 8149SOL    HW226442   6.342   6.425   4.194  0.5593 -0.7565 -1.0845
 8150SOL     OW26443   6.515   8.166   7.455  0.3684  0.5289  0.1285
 8150SOL    HW126444   6.502   8.251   7.498  0.7120  0.3432  0.6171
 8150SOL    HW226445   6.447   8.110   7.492  0.8084  0.3057  0.6155
 8151SOL     OW26446   2.306   7.462   6.901 -0.3209  0.7518  0.4889
 8151SOL    HW126447   2.365   7.521   6.854  0.5942  0.1261  0.8219
 8151SOL    HW226448   2.354   7.380   6.907 -0.8408  0.5083  1.6295
 8152SOL     OW26449   3.281   5.368   5.022  0.1179  0.0086  0.5565
 8152SOL    HW126450   3.376   5.362   5.034  0.6027  1.5480 -1.7430
 8152SOL    HW226451   3.258   5.454   5.058 -0.3910 -0.3371  1.0609
 8153SOL     OW26452   7.818   7.280   3.559  0.6204 -0.3415  0.2374
 8153SOL    HW126453   7.776   7.305   3.641 -0.5200 -0.1058 -0.4034
 8153SOL    HW226454   7.881   7.212   3.584  1.8784  1.2473  1.6264
 8154SOL     OW26455   5.020   3.964   6.902 -0.8985  0.1059 -0.2639
 8154SOL    HW126456   5.046   3.877   6.874 -1.1144  0.1452 -0.6007
 8154SOL    HW226457   5.031   4.018   6.824 -2.3180  0.0525 -0.5314
 8155SOL     OW26458   8.081   8.019   1.899 -1.0274 -0.4317  0.5540
 8155SOL    HW126459   8.024   8.044   1.971  1.7434 -0.3715  2.9524
 8155SOL    HW226460   8.142   7.955   1.938  0.9495  0.0201 -1.5485
 8156SOL     OW26461   6.204   8.044   4.833 -0.4571  0.2772 -0.2166
 8156SOL    HW126462   6.260   7.983   4.785  0.1050  0.1545  0.5590
 8156SOL    HW226463   6.177   8.109   4.768  1.2702  0.8105 -0.4629
 8157SOL     OW26464   6.241   8.486   4.596  0.3642  0.3129  0.1163
 8157SOL    HW126465   6.258   8.549   4.666 -0.5855 -0.4948  1.1010
 8157SOL    HW226466   6.320   8.431   4.595 -0.3682 -0.8993  1.9392
 8158SOL     OW26467   7.915   2.808   1.087 -0.1392  0.6020  0.1649
 8158SOL    HW126468   7.941   2.749   1.158 -0.6276 -0.3858 -0.4470
 8158SOL    HW226469   7.938   2.895   1.118  0.9600  0.0626  0.9484
 8159SOL     OW26470   3.682   6.912   1.612  0.5614  0.2133  0.0633
 8159SOL    HW126471   3.628   6.945   1.540 -0.7460 -0.9293  0.4570
 8159SOL    HW226472   3.719   6.990   1.653  0.5240  0.9347 -1.2206
 8160SOL     OW26473   6.086   6.377   0.086 -0.1950 -0.2428 -0.7181
 8160SOL    HW126474   6.156   6.427   0.044 -1.9416  1.5330 -1.6559
 8160SOL    HW226475   6.096   6.395   0.179  1.3403 -1.0701 -0.6842
 8161SOL     OW26476   0.320   4.820   1.183  0.2684 -0.6312 -0.7596
 8161SOL    HW126477   0.227   4.838   1.169  0.0315 -2.1174 -1.2958
 8161SOL    HW226478   0.349   4.780   1.100  1.3972 -0.1601 -0.6114
 8162SOL     OW26479   5.665   2.138   5.646  0.3697 -0.0256  0.0433
 8162SOL    HW126480   5.725   2.205   5.679  0.6082 -0.0017 -0.4307
 8162SOL    HW226481   5.582   2.155   5.691  0.0235  1.4540 -1.0960
 8163SOL     OW26482   6.452   3.096   1.101 -0.2912  0.2729 -0.6829
 8163SOL    HW126483   6.402   3.046   1.165 -0.7465  2.0209  0.3674
 8163SOL    HW226484   6.540   3.101   1.138 -0.8510  2.3353  0.4708
 8164SOL     OW26485   8.592   0.580   3.882  0.2921  0.3825 -0.0951
 8164SOL    HW126486   8.629   0.505   3.928 -0.2291  1.4383  2.1596
 8164SOL    HW226487   8.651   0.652   3.901 -1.8776  1.7154  2.2065
 8165SOL     OW26488   5.795   4.962   3.111  0.0935  0.1834  0.1242
 8165SOL    HW126489   5.859   4.996   3.049 -0.2791 -0.1726 -0.4684
 8165SOL    HW226490   5.835   4.882   3.145  0.0149  0.0224 -0.1602
 8166SOL     OW26491   5.923   2.312   4.248  0.1290  0.3171 -0.2214
 8166SOL    HW126492   5.842   2.264   4.265 -0.0100  0.2857 -0.9329
 8166SOL    HW226493   5.926   2.321   4.152 -0.5634  2.9361 -0.0799
 8167SOL     OW26494   0.681   0.867   7.127 -0.1190 -0.0468 -0.2693
 8167SOL    HW126495   0.630   0.808   7.071 -1.2456 -0.4600  1.1212
 8167SOL    HW226496   0.615   0.913   7.179  0.8077  1.5299 -0.4142
 8168SOL     OW26497   7.364   2.764   3.065  0.2950  0.1010  0.0240
 8168SOL    HW126498   7.451   2.724   3.070  0.7691  1.1713  0.8741
 8168SOL    HW226499   7.369   2.839   3.125 -1.5491 -0.4139  0.9045
 8169SOL     OW26500   0.377   5.070   6.744 -0.5706 -0.0421  0.6565
 8169SOL    HW126501   0.415   5.100   6.827  0.6797 -3.1449  1.3921
 8169SOL    HW226502   0.283   5.069   6.759 -0.3738 -0.3556  2.0233
 8170SOL     OW26503   2.776   6.668   1.361  0.0194  0.3887  0.2207
 8170SOL    HW126504   2.811   6.692   1.275  1.1945 -0.4962  0.4190
 8170SOL    HW226505   2.738   6.749   1.395 -0.4576  0.7514 -1.1195
 8171SOL     OW26506   5.990   6.521   8.344 -0.1057 -0.3151 -0.5865
 8171SOL    HW126507   6.005   6.613   8.323  1.4589  0.2886  2.5839
 8171SOL    HW226508   6.076   6.479   8.333 -0.0822 -0.7025  0.8226
 8172SOL     OW26509   0.713   8.605   8.198  0.8361  0.1717 -0.1852
 8172SOL    HW126510   0.644   8.645   8.251  1.6324  0.1160  0.9314
 8172SOL    HW226511   0.737   8.672   8.134  0.2125  0.4308 -0.1510
 8173SOL     OW26512   2.389   3.785   6.156  0.1273 -0.5943 -0.5132
 8173SOL    HW126513   2.469   3.833   6.175  0.0447 -0.3610 -0.7560
 8173SOL    HW226514   2.378   3.792   6.061  0.5118 -1.7153 -0.6631
 8174SOL     OW26515   4.068   3.208   1.911 -0.2854 -0.0418  0.3134
 8174SOL    HW126516   4.069   3.127   1.963  1.5967  0.2978  0.8759
 8174SOL    HW226517   4.119   3.186   1.833  0.9078  0.7941  0.8311
 8175SOL     OW26518   2.629   2.600   3.756 -0.2432 -0.0917  0.0510
 8175SOL    HW126519   2.713   2.586   3.798  0.1862 -1.4746 -1.1774
 8175SOL    HW226520   2.582   2.517   3.768 -0.3185 -0.3392 -1.6374
 8176SOL     OW26521   0.695   8.338   2.389 -0.3541  0.2581 -0.5572
 8176SOL    HW126522   0.736   8.270   2.442  0.6480  0.8971 -0.5028
 8176SOL    HW226523   0.700   8.306   2.299  0.1888  0.2925 -0.5397
 8177SOL     OW26524   5.409   6.749   7.071 -0.1112 -0.2094  0.1888
 8177SOL    HW126525   5.499   6.731   7.101  0.9030  1.8609 -1.3732
 8177SOL    HW226526   5.420   6.803   6.993 -2.7568  0.4673  0.1992
 8178SOL     OW26527   5.948   5.194   4.210 -0.6973 -0.1152 -0.1860
 8178SOL    HW126528   5.946   5.154   4.296 -3.1214  0.2351 -0.0193
 8178SOL    HW226529   5.960   5.288   4.227 -0.3457 -0.1370 -0.2945
 8179SOL     OW26530   7.112   5.171   1.844 -0.4148  0.2215 -0.0189
 8179SOL    HW126531   7.172   5.218   1.902 -1.4941  1.3854  0.2067
 8179SOL    HW226532   7.160   5.092   1.818  0.9724  0.8199  0.6130
 8180SOL     OW26533   2.652   6.537   4.539  0.1049 -0.4838 -0.2715
 8180SOL    HW126534   2.564   6.564   4.565 -0.5347 -2.3522 -0.3178
 8180SOL    HW226535   2.710   6.581   4.600 -0.7826  1.3861 -0.7033
 8181SOL     OW26536   0.802   5.724   6.565  0.2875  0.0370 -0.0983
 8181SOL    HW126537   0.877   5.784   6.568  0.7274 -0.4060 -1.5179
 8181SOL    HW226538   0.811   5.679   6.481  0.2844 -2.4303  1.1501
 8182SOL     OW26539   8.323   1.829   2.583  0.3773 -0.2319 -0.2193
 8182SOL    HW126540   8.410   1.852   2.549  0.1414  0.0146 -0.6705
 8182SOL    HW226541   8.262   1.874   2.524 -0.0527 -0.2235  0.2291
 8183SOL     OW26542   5.011   5.646   1.177  0.2240 -0.1079 -0.1591
 8183SOL    HW126543   4.944   5.706   1.145  0.4068  0.3085  0.2277
 8183SOL    HW226544   5.093   5.695   1.169  0.7061 -1.1196 -1.9957
 8184SOL     OW26545   6.832   5.724   2.408 -0.3848  0.0682 -0.6821
 8184SOL    HW126546   6.796   5.771   2.483  1.6440  0.9209 -0.1816
 8184SOL    HW226547   6.864   5.641   2.444  1.1762  0.7507 -0.4393
 8185SOL     OW26548   3.948   0.003   7.513  0.1978  0.1597  0.4415
 8185SOL    HW126549   3.857   0.018   7.488  0.6719 -0.3146 -1.7208
 8185SOL    HW226550   3.952  -0.089   7.539  0.6309 -0.7427 -2.5281
 8186SOL     OW26551   2.070   5.439   3.597  0.3110  0.0399  0.3865
 8186SOL    HW126552   2.108   5.494   3.527  1.5770 -0.4369  0.6725
 8186SOL    HW226553   2.046   5.358   3.552 -3.4090  1.4219 -0.4600
 8187SOL     OW26554   3.796   4.936   6.263  0.1493 -0.6578 -0.4189
 8187SOL    HW126555   3.726   4.922   6.199 -0.8884  2.1761 -0.0226
 8187SOL    HW226556   3.825   5.026   6.249 -0.6560  0.4213  3.4453
 8188SOL     OW26557   0.725   4.312   6.444  0.2686 -0.1878 -0.0107
 8188SOL    HW126558   0.673   4.340   6.369  0.0783 -0.2638  0.0950
 8188SOL    HW226559   0.786   4.247   6.408  2.3504  2.0493 -0.7696
 8189SOL     OW26560   0.882   2.110   4.489  0.4805 -0.2534  0.4269
 8189SOL    HW126561   0.858   2.061   4.567 -1.0773  0.2513  0.2988
 8189SOL    HW226562   0.879   2.201   4.516  0.7038 -0.1096 -0.0265
 8190SOL     OW26563   3.153   5.387   5.594  0.2510  0.1131 -0.6839
 8190SOL    HW126564   3.217   5.334   5.641  0.0545  0.6591  0.2203
 8190SOL    HW226565   3.081   5.327   5.576  1.0063 -0.5176 -1.7456
 8191SOL     OW26566   3.695   7.635   5.400  0.4686  0.0783 -0.0887
 8191SOL    HW126567   3.626   7.698   5.378 -1.5309 -2.0656 -0.3563
 8191SOL    HW226568   3.751   7.682   5.462 -0.3907  2.3958 -0.9509
 8192SOL     OW26569   6.906   0.561   0.019  0.4053  0.7173 -0.2087
 8192SOL    HW126570   6.986   0.515   0.045  0.2975  0.4780 -0.2989
 8192SOL    HW226571   6.852   0.561   0.098 -0.5778 -1.3750 -0.7884
 8193SOL     OW26572   0.455   7.174   6.483 -0.0197  0.8379  0.0258
 8193SOL    HW126573   0.545   7.150   6.463 -0.4793 -0.0865 -1.0598
 8193SOL    HW226574   0.437   7.135   6.568 -0.5267 -2.2647 -1.3713
 8194SOL     OW26575   6.801   6.673   6.594 -0.3362  0.1080  0.0219
 8194SOL    HW126576   6.760   6.609   6.535  0.0672 -0.7638  0.6716
 8194SOL    HW226577   6.773   6.646   6.681  1.6074 -0.5237  0.4934
 8195SOL     OW26578   3.942   4.305   7.446  0.1749 -0.6113  0.4272
 8195SOL    HW126579   4.011   4.346   7.394 -1.5133  3.7872  1.2670
 8195SOL    HW226580   3.985   4.282   7.529  1.1709 -0.2408  0.0290
 8196SOL     OW26581   2.835   4.499   3.731  0.1083  0.1677 -0.5228
 8196SOL    HW126582   2.841   4.525   3.823 -1.7782 -0.6114 -0.1228
 8196SOL    HW226583   2.899   4.553   3.686 -0.3543  2.0366  0.9547
 8197SOL     OW26584   1.306   1.700   6.421 -0.0639 -0.0231  0.8940
 8197SOL    HW126585   1.224   1.712   6.374  0.3673 -0.6401 -0.0385
 8197SOL    HW226586   1.362   1.652   6.361  1.2167  0.9440  1.2636
 8198SOL     OW26587   8.155   0.493   7.117 -0.7558  0.3880 -0.0165
 8198SOL    HW126588   8.064   0.470   7.099 -0.3680 -0.5303 -0.9427
 8198SOL    HW226589   8.180   0.440   7.192 -0.7753  0.0799 -0.2250
 8199SOL     OW26590   5.159   1.194   7.740  0.5882  0.3790 -0.2050
 8199SOL    HW126591   5.202   1.117   7.776  1.4059  2.2039  3.1555
 8199SOL    HW226592   5.066   1.171   7.740  0.9188 -1.0760 -0.6534
 8200SOL     OW26593   1.024   8.734   7.592  0.7416 -0.0960 -0.5205
 8200SOL    HW126594   1.112   8.719   7.626  0.8258  1.5407  0.0642
 8200SOL    HW226595   1.024   8.826   7.565 -1.4983  0.6794  1.7570
 8201SOL     OW26596   3.244   1.235   4.246  1.0050 -0.0638  0.3352
 8201SOL    HW126597   3.335   1.246   4.216  0.9543 -1.0124 -0.2022
 8201SOL    HW226598   3.211   1.161   4.195 -1.0178  2.0546 -1.6968
 8202SOL     OW26599   2.261   2.557   6.364 -0.0652 -0.1872  0.0496
 8202SOL    HW126600   2.334   2.563   6.302  0.4823  0.1346  0.7049
 8202SOL    HW226601   2.184   2.582   6.313  0.2541 -0.6873 -0.6951
 8203SOL     OW26602   4.987   7.320   0.602  0.2967  0.2791 -0.7839
 8203SOL    HW126603   5.064   7.281   0.560  0.4440 -0.7498  0.4024
 8203SOL    HW226604   4.965   7.394   0.546  1.3715 -0.1757 -1.8583
 8204SOL     OW26605   2.165   8.586   0.540  0.1229 -0.5688 -0.2575
 8204SOL    HW126606   2.182   8.613   0.630 -0.8608 -0.3964 -0.1118
 8204SOL    HW226607   2.116   8.659   0.502  0.5849 -0.6138 -0.9555
 8205SOL     OW26608   4.321   7.676   6.181 -0.2782 -0.2522  0.3442
 8205SOL    HW126609   4.250   7.617   6.210  1.4253 -2.0097  1.1783
 8205SOL    HW226610   4.352   7.638   6.099 -0.8573  1.0451 -0.5123
 8206SOL     OW26611   0.480   5.558   4.542 -0.1461  0.4391 -0.1616
 8206SOL    HW126612   0.475   5.631   4.480  0.2900  0.6118  0.0025
 8206SOL    HW226613   0.407   5.573   4.602 -0.3621  0.4620 -0.4229
 8207SOL     OW26614   5.425   8.794   7.165 -0.2131  0.1698  0.0923
 8207SOL    HW126615   5.354   8.852   7.137 -0.2263  0.6585  1.0945
 8207SOL    HW226616   5.382   8.727   7.219 -0.1256 -0.4882 -0.6312
 8208SOL     OW26617   4.918   6.808   5.852 -0.5221  0.3189  0.6254
 8208SOL    HW126618   4.937   6.891   5.895  0.3517  0.0599  0.7470
 8208SOL    HW226619   4.873   6.832   5.771  0.1482  0.9326  0.4293
 8209SOL     OW26620   7.082   6.489   0.723 -0.0679 -0.3455  0.5435
 8209SOL    HW126621   7.150   6.455   0.780  0.7617  0.7323  0.2346
 8209SOL    HW226622   7.129   6.521   0.646 -0.9926 -0.1846  0.0335
 8210SOL     OW26623   5.911   0.223   8.294 -0.3315  0.1542  0.1713
 8210SOL    HW126624   5.830   0.236   8.344 -0.9021 -0.8808 -0.4447
 8210SOL    HW226625   5.946   0.312   8.282 -0.3042  0.4563  2.1443
 8211SOL     OW26626   3.057   0.076   0.058 -0.2278 -0.2388  0.0303
 8211SOL    HW126627   3.045   0.099   0.150  0.8273  0.7865 -0.0652
 8211SOL    HW226628   3.077  -0.017   0.058 -1.2112 -0.4633  0.7407
 8212SOL     OW26629   4.079   7.765   8.409 -0.1240  0.4597  0.0441
 8212SOL    HW126630   4.004   7.722   8.451 -0.3943  0.3172 -0.5677
 8212SOL    HW226631   4.102   7.706   8.337  0.2575  0.7547 -0.0764
 8213SOL     OW26632   8.093   7.574   6.899 -0.0475 -0.2734  0.4944
 8213SOL    HW126633   8.176   7.606   6.864  0.5773  0.2607  2.3628
 8213SOL    HW226634   8.079   7.491   6.855  1.0214  0.0445 -0.5018
 8214SOL     OW26635   6.760   8.470   7.730  0.6417 -0.6403 -0.8819
 8214SOL    HW126636   6.734   8.409   7.799  0.0032 -1.1921 -1.5913
 8214SOL    HW226637   6.793   8.547   7.776 -2.9761  0.4562  0.1336
 8215SOL     OW26638   8.838   1.039   4.082 -0.7149  0.2975 -0.4432
 8215SOL    HW126639   8.891   1.072   4.155  0.1827 -0.1923 -0.8620
 8215SOL    HW226640   8.782   0.972   4.121  0.6269 -0.8330 -0.4106
 8216SOL     OW26641   7.109   3.636   3.829  0.2355 -0.5604 -0.0857
 8216SOL    HW126642   7.136   3.686   3.906  1.7956  0.0128 -0.9582
 8216SOL    HW226643   7.029   3.591   3.857 -0.6615  1.5812  1.0634
 8217SOL     OW26644   6.573   2.205   6.314 -0.2080  0.8525  0.5435
 8217SOL    HW126645   6.536   2.194   6.226 -0.5686  3.4255  0.2931
 8217SOL    HW226646   6.560   2.298   6.334  0.0006  0.3798  3.2759
 8218SOL     OW26647   7.864   5.640   6.487  0.3320 -0.5685 -0.1081
 8218SOL    HW126648   7.933   5.609   6.428  0.1183 -2.2463  0.4678
 8218SOL    HW226649   7.873   5.585   6.564 -1.5402 -0.6959  0.0533
 8219SOL     OW26650   6.265   4.488   4.689  0.2916  0.3175  0.0975
 8219SOL    HW126651   6.246   4.410   4.741 -1.1335  0.7129  0.2155
 8219SOL    HW226652   6.295   4.455   4.605 -0.3250 -0.3701  0.1410
 8220SOL     OW26653   6.239   1.866   8.827 -0.3098 -0.1962 -0.5248
 8220SOL    HW126654   6.202   1.806   8.893  0.1404 -0.4783 -0.5206
 8220SOL    HW226655   6.163   1.905   8.784 -0.6494  1.2191  1.2443
 8221SOL     OW26656   8.090   0.019   8.598 -0.0051 -0.0907 -0.0750
 8221SOL    HW126657   8.121   0.077   8.529 -0.0846  0.0152 -0.0231
 8221SOL    HW226658   8.166  -0.034   8.620 -0.0222 -0.2263 -0.3454
 8222SOL     OW26659   6.859   0.339   5.325  0.1247  0.0270 -0.1046
 8222SOL    HW126660   6.777   0.309   5.285 -0.5119  0.3559  0.9122
 8222SOL    HW226661   6.848   0.321   5.418  1.1323  0.2843  0.0785
 8223SOL     OW26662   4.167   8.141   1.949  0.5645  0.3553  0.0222
 8223SOL    HW126663   4.152   8.221   2.000 -0.0551  0.1733  0.1241
 8223SOL    HW226664   4.254   8.154   1.911  1.1893  0.3281  1.4133
 8224SOL     OW26665   0.653   5.324   8.383  0.0033  0.0402 -0.6002
 8224SOL    HW126666   0.665   5.263   8.455  0.0569 -1.3443 -1.7500
 8224SOL    HW226667   0.650   5.410   8.425  0.8654 -0.6546  0.9635
 8225SOL     OW26668   0.539   6.159   7.310  0.0200 -0.3281 -0.3848
 8225SOL    HW126669   0.504   6.245   7.334 -1.5271 -0.8604 -0.6517
 8225SOL    HW226670   0.569   6.122   7.393  1.1111  0.6221 -0.3264
 8226SOL     OW26671   3.081   2.722   1.470  0.3629  0.3700 -0.3267
 8226SOL    HW126672   2.999   2.751   1.512  0.9678 -0.6498  1.7223
 8226SOL    HW226673   3.053   2.652   1.411 -0.4222  1.2007 -0.9726
 8227SOL     OW26674   3.249   5.684   7.493 -0.2737  0.2325 -0.2736
 8227SOL    HW126675   3.220   5.597   7.522  0.7677  0.1617  0.6114
 8227SOL    HW226676   3.189   5.745   7.537  0.1757  0.0379  0.6380
 8228SOL     OW26677   2.625   2.530   0.494 -0.0374  0.2986  0.3286
 8228SOL    HW126678   2.632   2.461   0.560 -1.6975  0.0048  0.2388
 8228SOL    HW226679   2.661   2.490   0.414 -0.0125 -0.0859  0.5281
 8229SOL     OW26680   2.069   4.981   8.087 -0.0132  0.0715 -0.3867
 8229SOL    HW126681   2.119   4.997   8.166  2.2208  3.2538 -2.2220
 8229SOL    HW226682   1.985   5.025   8.101  0.2258  0.2963  0.3433
 8230SOL     OW26683   8.430   1.505   2.173  0.1399 -0.8908 -0.3125
 8230SOL    HW126684   8.465   1.441   2.235  0.6571  0.2957  0.6611
 8230SOL    HW226685   8.349   1.465   2.140  1.1301 -2.6173 -0.7576
 8231SOL     OW26686   6.812   2.642   6.682 -0.1535 -0.4962 -0.4718
 8231SOL    HW126687   6.769   2.616   6.764 -0.6765  1.1616 -0.1782
 8231SOL    HW226688   6.873   2.571   6.663 -1.7898 -2.0892  0.0266
 8232SOL     OW26689   5.446   0.222   6.395 -0.0276  0.2150  0.2874
 8232SOL    HW126690   5.486   0.260   6.474 -1.4892  0.2757  1.0352
 8232SOL    HW226691   5.517   0.175   6.352  0.7406 -0.0595  1.8036
 8233SOL     OW26692   3.202   7.395   0.206 -0.4279  0.9902 -0.1564
 8233SOL    HW126693   3.213   7.368   0.297 -0.7449  0.7316 -0.1912
 8233SOL    HW226694   3.290   7.395   0.170 -0.2752  1.2922  0.2054
 8234SOL     OW26695   5.651   8.521   3.202 -0.1916  0.1651 -0.2951
 8234SOL    HW126696   5.717   8.466   3.244 -0.5127  1.0362  1.4541
 8234SOL    HW226697   5.659   8.606   3.245 -1.2139  0.8261 -1.3460
 8235SOL     OW26698   3.566   2.908   5.559  0.7601 -0.3488  0.3694
 8235SOL    HW126699   3.517   2.906   5.641  0.8777  0.4484  0.4688
 8235SOL    HW226700   3.524   2.842   5.504 -0.3406  0.2123  0.5008
 8236SOL     OW26701   7.305   8.009   7.621  0.8681 -0.0835 -0.1698
 8236SOL    HW126702   7.315   8.004   7.716  1.4195  1.6335 -0.1161
 8236SOL    HW226703   7.210   8.009   7.607  0.7141 -3.1086  0.1490
 8237SOL     OW26704   0.013   6.871   3.757  0.3803 -0.5134  0.6168
 8237SOL    HW126705   0.098   6.878   3.713  0.6223 -1.6011  0.8595
 8237SOL    HW226706   0.028   6.909   3.843  0.0364  1.1828 -0.0303
 8238SOL     OW26707   6.306   6.855   3.794  0.1058  0.2642  0.3414
 8238SOL    HW126708   6.271   6.767   3.778 -1.1626  1.0461 -1.4770
 8238SOL    HW226709   6.236   6.901   3.841 -0.8576  1.3920 -2.0333
 8239SOL     OW26710   8.484   2.521   6.117  0.1570  0.3715 -0.1743
 8239SOL    HW126711   8.470   2.586   6.186  2.4509 -0.0423  0.7465
 8239SOL    HW226712   8.395   2.496   6.091 -0.7903  1.4521  1.7408
 8240SOL     OW26713   5.931   0.865   3.461  0.4383 -0.3938  0.1665
 8240SOL    HW126714   5.851   0.901   3.422  1.2947  0.7347 -0.6358
 8240SOL    HW226715   5.901   0.813   3.536 -0.8801  2.1562  1.5107
 8241SOL     OW26716   8.045   2.268   6.764 -0.2754 -0.3619 -0.2266
 8241SOL    HW126717   7.998   2.340   6.805 -3.1264 -1.1689 -1.7835
 8241SOL    HW226718   8.086   2.306   6.687 -0.2585 -0.0621 -0.0685
 8242SOL     OW26719   3.655   1.738   8.653 -0.0828  0.9278 -0.0549
 8242SOL    HW126720   3.723   1.693   8.604 -0.1863  1.0428 -0.3056
 8242SOL    HW226721   3.617   1.800   8.591 -0.2393  1.0508  0.1591
 8243SOL     OW26722   6.506   7.724   1.194 -0.1750 -0.0134  0.3679
 8243SOL    HW126723   6.447   7.668   1.244 -1.4392 -0.3073 -1.3401
 8243SOL    HW226724   6.452   7.800   1.170  0.3140  0.0236 -0.6806
 8244SOL     OW26725   3.492   4.625   8.773  0.3640  0.2105  0.1426
 8244SOL    HW126726   3.398   4.619   8.786  0.0698 -1.0527 -1.9928
 8244SOL    HW226727   3.524   4.535   8.784  1.6696  0.8969  2.7009
 8245SOL     OW26728   4.407   5.330   5.419  0.1439  0.2773 -0.7669
 8245SOL    HW126729   4.444   5.414   5.392  1.0089  1.1801  2.6888
 8245SOL    HW226730   4.335   5.353   5.477 -0.6217 -1.4233 -0.9785
 8246SOL     OW26731   0.074   0.632   5.450  0.0006  0.1112 -0.0614
 8246SOL    HW126732   0.164   0.653   5.475 -0.6923  1.5900  1.3775
 8246SOL    HW226733   0.064   0.671   5.363  0.2328  1.5088  0.5162
 8247SOL     OW26734   3.581   8.560   8.616 -0.0717  0.4303 -0.1021
 8247SOL    HW126735   3.487   8.548   8.629  0.0511 -1.7980 -0.7487
 8247SOL    HW226736   3.591   8.564   8.521  0.5444 -0.2006 -0.0735
 8248SOL     OW26737   0.449   8.368   4.489 -0.2990  0.0210  0.1877
 8248SOL    HW126738   0.484   8.341   4.574 -1.5292 -1.8750  0.1533
 8248SOL    HW226739   0.401   8.291   4.457 -0.4828  0.9278 -1.8984
 8249SOL     OW26740   7.994   4.987   3.585  0.4283 -0.5654 -0.3379
 8249SOL    HW126741   7.914   4.963   3.537 -0.4903 -0.4950  1.1123
 8249SOL    HW226742   8.063   4.939   3.540 -0.5196 -1.1327 -1.2437
 8250SOL     OW26743   8.172   2.440   6.607 -0.0756  0.0341  0.6951
 8250SOL    HW126744   8.098   2.430   6.548 -0.8539  0.9178  1.5112
 8250SOL    HW226745   8.243   2.391   6.564 -1.9271 -3.6393  1.4145
 8251SOL     OW26746   2.689   1.769   6.588 -0.0684  0.0792 -0.1742
 8251SOL    HW126747   2.747   1.804   6.656 -0.0255  0.3294 -0.3365
 8251SOL    HW226748   2.601   1.776   6.626 -0.0518  0.2903 -0.1697
 8252SOL     OW26749   4.703   3.257   6.426 -0.0732  0.6758 -0.0901
 8252SOL    HW126750   4.778   3.203   6.448 -1.4135 -0.7869  1.0977
 8252SOL    HW226751   4.722   3.342   6.466  1.3433  0.6370 -0.6254
 8253SOL     OW26752   6.583   4.630   8.620 -0.4268  0.3348  0.6096
 8253SOL    HW126753   6.675   4.649   8.635 -0.4539  0.5477  0.5115
 8253SOL    HW226754   6.567   4.655   8.529 -0.1053 -1.6002 -0.0276
 8254SOL     OW26755   3.113   3.636   8.761 -0.1712  0.1336  0.2037
 8254SOL    HW126756   3.198   3.625   8.803 -1.5181 -2.3096  2.5942
 8254SOL    HW226757   3.068   3.702   8.815 -0.5290 -0.1165  0.2135
 8255SOL     OW26758   2.593   6.284   4.464  0.3296 -0.1515 -0.6085
 8255SOL    HW126759   2.574   6.365   4.511 -1.9240  0.1557 -1.8924
 8255SOL    HW226760   2.559   6.214   4.520 -1.5000  0.1471 -1.2734
 8256SOL     OW26761   5.978   8.327   0.615 -0.0619  0.0550  0.2982
 8256SOL    HW126762   6.050   8.389   0.603  1.0245 -1.0643  0.8841
 8256SOL    HW226763   5.931   8.329   0.531  0.2678  1.2427  0.1156
 8257SOL     OW26764   2.589   5.227   5.052  0.3940  0.4560 -0.1841
 8257SOL    HW126765   2.609   5.196   5.141  1.1804 -1.4652 -0.9757
 8257SOL    HW226766   2.521   5.166   5.021  1.3393  0.0309 -1.4919
 8258SOL     OW26767   1.799   7.366   2.097 -0.5667  0.4250 -0.9449
 8258SOL    HW126768   1.830   7.343   2.185  1.7406  0.1651 -1.7618
 8258SOL    HW226769   1.706   7.343   2.098 -0.3249 -0.7089  1.0461
 8259SOL     OW26770   1.651   0.802   1.985 -0.4210 -0.5462  0.2083
 8259SOL    HW126771   1.578   0.839   2.035 -0.8745 -0.0945 -0.7580
 8259SOL    HW226772   1.718   0.783   2.051 -0.6543  0.8559  0.8866
 8260SOL     OW26773   1.348   7.045   2.651 -0.0080  0.1792  0.2571
 8260SOL    HW126774   1.359   7.091   2.567 -0.8592  0.5005  0.3168
 8260SOL    HW226775   1.406   6.969   2.643 -1.5389 -0.8992 -1.4393
 8261SOL     OW26776   4.938   5.707   5.697  0.2145  0.6392 -0.1350
 8261SOL    HW126777   4.923   5.663   5.781 -0.9035  0.4052 -0.4470
 8261SOL    HW226778   5.006   5.771   5.715  2.1639 -1.4009  0.2876
 8262SOL     OW26779   8.062   5.107   8.294 -0.5658  1.0889  0.1538
 8262SOL    HW126780   8.064   5.089   8.200  1.8523  1.2047  0.1262
 8262SOL    HW226781   8.074   5.202   8.301 -2.5091  1.3645  0.5984
 8263SOL     OW26782   2.746   3.585   5.396 -0.2504 -0.0338 -0.1251
 8263SOL    HW126783   2.810   3.645   5.360 -0.2794 -0.0197 -0.1522
 8263SOL    HW226784   2.771   3.576   5.488 -0.5207  0.3803 -0.0111
 8264SOL     OW26785   2.496   1.156   8.073 -0.0320 -0.0341 -0.4556
 8264SOL    HW126786   2.588   1.164   8.100 -0.4899  1.1179  0.8643
 8264SOL    HW226787   2.492   1.202   7.989  0.2632  1.5807  0.3611
 8265SOL     OW26788   4.436   0.440   8.854  0.2991 -0.0950  0.0574
 8265SOL    HW126789   4.458   0.502   8.923  0.0484  2.5570 -2.0728
 8265SOL    HW226790   4.498   0.460   8.783 -1.0617 -0.9277 -1.4394
 8266SOL     OW26791   2.968   4.071   7.138 -0.3180  0.5369 -0.1723
 8266SOL    HW126792   2.905   4.061   7.066  0.7118  1.1290 -1.1929
 8266SOL    HW226793   3.046   4.107   7.096  0.1475  1.3757  1.3388
 8267SOL     OW26794   8.824   5.591   3.536 -0.0223 -0.3544 -0.5502
 8267SOL    HW126795   8.829   5.499   3.510  2.0980 -0.5839  0.5287
 8267SOL    HW226796   8.809   5.589   3.630 -0.2265  0.4266 -0.5579
 8268SOL     OW26797   6.590   4.469   2.445 -0.4680  0.0908  0.0247
 8268SOL    HW126798   6.586   4.431   2.533  0.9695 -0.7884 -0.2618
 8268SOL    HW226799   6.642   4.549   2.457 -0.5220  0.1245  0.0310
 8269SOL     OW26800   0.148   8.342   1.255 -0.3363  0.2053 -0.0413
 8269SOL    HW126801   0.202   8.364   1.178  0.0107 -0.4040  0.0237
 8269SOL    HW226802   0.058   8.350   1.224 -0.2010 -0.9551 -0.7931
 8270SOL     OW26803   6.373   4.129   3.882  0.5498  0.2975 -0.1793
 8270SOL    HW126804   6.443   4.184   3.916  0.5955 -0.2902  0.7186
 8270SOL    HW226805   6.409   4.092   3.802  0.6102  1.3551 -0.6528
 8271SOL     OW26806   8.375   7.724   7.972 -0.2457  0.5537  0.3427
 8271SOL    HW126807   8.438   7.653   7.962  0.1423  0.7536  1.2923
 8271SOL    HW226808   8.418   7.786   8.031 -1.3506  0.6703  1.0476
 8272SOL     OW26809   0.337   8.440   0.217 -0.7576 -0.3021  0.6269
 8272SOL    HW126810   0.400   8.511   0.229 -2.0629  1.1326 -0.5466
 8272SOL    HW226811   0.388   8.360   0.229  2.0770  0.6487 -3.1778
 8273SOL     OW26812   1.924   2.553   2.594 -0.3121  1.1934 -0.0035
 8273SOL    HW126813   1.846   2.600   2.565  0.7524  2.5540 -0.8320
 8273SOL    HW226814   1.986   2.564   2.522  1.2102  1.5837  1.3081
 8274SOL     OW26815   7.053   1.979   4.151  0.0458 -0.1037 -0.8868
 8274SOL    HW126816   7.068   1.900   4.100 -0.1527 -0.6998 -0.0394
 8274SOL    HW226817   7.000   2.035   4.093 -2.5907 -1.8938 -0.3584
 8275SOL     OW26818   4.999   4.452   2.359  0.3570  0.9004  0.0855
 8275SOL    HW126819   4.998   4.498   2.443  1.0955 -0.3154  0.7839
 8275SOL    HW226820   5.075   4.395   2.364 -0.6174 -0.5263 -0.6847
 8276SOL     OW26821   7.890   6.725   8.438  0.0957 -0.5557  0.2871
 8276SOL    HW126822   7.825   6.794   8.454 -1.7733 -2.2006  0.1872
 8276SOL    HW226823   7.962   6.745   8.498  0.1570  2.1146 -0.5731
 8277SOL     OW26824   0.788   5.899   0.392 -0.2303  0.0566  0.5125
 8277SOL    HW126825   0.738   5.978   0.411 -0.0199 -0.3582  3.1767
 8277SOL    HW226826   0.752   5.833   0.453  1.8120 -0.9455  0.7057
 8278SOL     OW26827   0.690   0.336   6.717 -1.0436  0.6178  0.3079
 8278SOL    HW126828   0.684   0.381   6.801 -1.5635  1.4498 -0.1653
 8278SOL    HW226829   0.675   0.404   6.651  0.8537  0.2728 -0.5383
 8279SOL     OW26830   6.889   1.135   3.324 -0.5317  0.4740  0.1901
 8279SOL    HW126831   6.796   1.112   3.327 -0.4120 -0.4896 -1.7085
 8279SOL    HW226832   6.922   1.113   3.411 -1.6206 -1.3699  0.1928
 8280SOL     OW26833   8.375   1.786   3.875 -0.1376 -0.0492 -0.0442
 8280SOL    HW126834   8.328   1.712   3.835  0.4185 -0.4139 -0.0226
 8280SOL    HW226835   8.355   1.860   3.817 -1.5305  0.0347  0.4912
 8281SOL     OW26836   6.559   6.036   2.604  0.2716  0.0294  0.3399
 8281SOL    HW126837   6.489   6.014   2.542  1.2605 -1.5690 -0.2628
 8281SOL    HW226838   6.595   6.118   2.571 -1.7558  1.2989  1.0896
 8282SOL     OW26839   4.949   5.471   0.294 -0.4330  0.5356 -0.6465
 8282SOL    HW126840   4.929   5.407   0.226 -0.6228  0.8345 -0.8780
 8282SOL    HW226841   4.877   5.534   0.289 -2.2768 -1.1285  1.9584
 8283SOL     OW26842   2.376   7.918   8.547 -0.5758  0.5389 -0.0977
 8283SOL    HW126843   2.435   7.901   8.621  1.8749  0.0106 -2.0426
 8283SOL    HW226844   2.301   7.862   8.563  1.3429 -2.0622  0.4360
 8284SOL     OW26845   0.497   2.064   5.507  0.5343 -0.3393 -0.6590
 8284SOL    HW126846   0.450   2.142   5.476  1.6134  1.2696  1.4742
 8284SOL    HW226847   0.431   1.995   5.508 -1.2033  1.2462 -0.0096
 8285SOL     OW26848   0.218   5.613   4.205 -0.3942 -0.1197 -0.3599
 8285SOL    HW126849   0.264   5.675   4.260 -0.5088  1.1310 -1.6181
 8285SOL    HW226850   0.274   5.535   4.203 -0.7604 -0.5080  2.1027
 8286SOL     OW26851   2.858   0.388   4.765 -0.0261 -0.0230 -0.7678
 8286SOL    HW126852   2.786   0.325   4.761 -0.5783  0.6033 -0.8550
 8286SOL    HW226853   2.936   0.336   4.744 -0.1488 -1.1421  1.2087
 8287SOL     OW26854   7.014   1.387   3.125 -0.0700  0.0852  0.2268
 8287SOL    HW126855   7.013   1.406   3.219 -0.9141  0.3311  0.1762
 8287SOL    HW226856   7.060   1.462   3.086 -0.6970  0.5397  0.3405
 8288SOL     OW26857   1.384   0.334   2.287 -0.3031  0.0855  0.2281
 8288SOL    HW126858   1.432   0.343   2.205 -1.7018 -0.3635 -0.6748
 8288SOL    HW226859   1.307   0.390   2.277 -0.6997 -0.2865  1.0711
 8289SOL     OW26860   6.152   5.075   5.308 -0.5734 -0.2250  0.7239
 8289SOL    HW126861   6.170   5.126   5.230  2.2882 -2.8336 -0.5574
 8289SOL    HW226862   6.217   5.105   5.372  0.4697 -1.4420  0.2919
 8290SOL     OW26863   5.084   2.047   4.636  0.0841  0.2076 -0.2399
 8290SOL    HW126864   5.167   2.002   4.619  1.0053  1.1998  1.4262
 8290SOL    HW226865   5.058   2.080   4.550  0.6798 -1.2748 -1.0437
 8291SOL     OW26866   4.864   2.517   7.383  0.0858 -0.6056 -0.2947
 8291SOL    HW126867   4.795   2.550   7.326 -0.4311 -0.1410  0.5747
 8291SOL    HW226868   4.873   2.584   7.451 -0.3158 -1.7960  0.9854
 8292SOL     OW26869   1.806   2.879   0.068 -0.0358  0.3367 -0.3431
 8292SOL    HW126870   1.765   2.812   0.122 -1.3166  0.0619 -1.6028
 8292SOL    HW226871   1.899   2.876   0.093 -0.1235 -1.6350 -0.0753
 8293SOL     OW26872   0.674   2.069   0.291 -0.6644 -0.0370 -0.0618
 8293SOL    HW126873   0.744   2.126   0.323  0.0385 -1.3659  0.8457
 8293SOL    HW226874   0.602   2.083   0.353 -0.2019 -0.7251  0.6450
 8294SOL     OW26875   6.794   5.067   4.933 -0.1894 -0.2651 -0.6824
 8294SOL    HW126876   6.882   5.039   4.906 -0.1020  0.8549 -1.6641
 8294SOL    HW226877   6.738   4.992   4.914  0.6134 -1.1759  0.4110
 8295SOL     OW26878   8.305   4.842   2.848  0.2156 -0.1241  0.1456
 8295SOL    HW126879   8.274   4.862   2.759 -2.1639 -1.6657  0.5311
 8295SOL    HW226880   8.329   4.927   2.885  1.0105  0.5840 -1.8638
 8296SOL     OW26881   4.175   8.557   2.923 -0.4668 -0.3733  0.4624
 8296SOL    HW126882   4.103   8.581   2.983  0.4208 -2.5517  2.5963
 8296SOL    HW226883   4.253   8.559   2.978  0.7459 -0.4225 -1.2021
 8297SOL     OW26884   1.889   3.686   7.967 -0.5594 -0.1985  0.0802
 8297SOL    HW126885   1.969   3.713   7.922  0.1325  0.2796  1.5322
 8297SOL    HW226886   1.883   3.592   7.952  0.9689 -0.4716  0.9630
 8298SOL     OW26887   8.852   3.487   1.909 -0.2335 -0.3891  0.0951
 8298SOL    HW126888   8.878   3.427   1.840 -1.1439 -1.3853  0.5945
 8298SOL    HW226889   8.918   3.475   1.977  0.9552  0.9636 -0.7676
 8299SOL     OW26890   6.694   7.155   3.857 -0.6187  0.3257 -0.1692
 8299SOL    HW126891   6.770   7.097   3.852 -2.5829 -2.6344  0.9485
 8299SOL    HW226892   6.669   7.170   3.766  0.0962 -0.3970 -0.4967
 8300SOL     OW26893   2.738   5.783   8.342  0.6781 -0.2822 -0.2090
 8300SOL    HW126894   2.676   5.813   8.275  1.5230  1.3086 -0.3243
 8300SOL    HW226895   2.714   5.692   8.358 -1.5683  0.2469 -0.3639
 8301SOL     OW26896   1.479   4.950   7.362  0.2632  0.3921 -0.2560
 8301SOL    HW126897   1.510   5.027   7.316  2.9111 -0.3899 -0.0112
 8301SOL    HW226898   1.455   4.888   7.293  2.2760 -0.0522 -0.6177
 8302SOL     OW26899   5.483   1.322   2.651 -0.1633  0.8857 -0.3659
 8302SOL    HW126900   5.560   1.310   2.706 -1.2388  2.2370  1.5638
 8302SOL    HW226901   5.506   1.396   2.594  0.3514  0.5847 -0.5490
 8303SOL     OW26902   2.378   8.495   6.844  0.0918  0.6253 -0.3872
 8303SOL    HW126903   2.298   8.455   6.810 -0.3677  0.5581  0.7146
 8303SOL    HW226904   2.442   8.486   6.773 -0.2821 -1.1967 -0.5586
 8304SOL     OW26905   6.644   7.382   0.381 -0.5764  0.1544  0.2363
 8304SOL    HW126906   6.682   7.317   0.440 -0.7489 -0.8424 -0.7201
 8304SOL    HW226907   6.552   7.389   0.409 -0.6192 -0.2000  0.1970
 8305SOL     OW26908   5.372   8.432   8.222 -0.4979  0.3225  0.0474
 8305SOL    HW126909   5.466   8.423   8.206 -0.6106 -1.0003  0.0470
 8305SOL    HW226910   5.331   8.382   8.151 -1.2472  1.6953 -0.5281
 8306SOL     OW26911   5.671   5.054   6.396  0.1152  0.0254  0.7599
 8306SOL    HW126912   5.668   4.965   6.363 -0.4580  0.4844 -0.4972
 8306SOL    HW226913   5.616   5.053   6.473  0.4870 -0.8064  1.0258
 8307SOL     OW26914   8.038   3.987   6.605  0.0536 -0.1551  0.0609
 8307SOL    HW126915   7.975   3.968   6.535  0.2225 -1.9484  0.3300
 8307SOL    HW226916   8.115   4.021   6.560 -0.1024 -0.6001 -0.5573
 8308SOL     OW26917   4.442   4.043   4.222 -0.3856 -0.6295  0.1630
 8308SOL    HW126918   4.382   4.116   4.239  0.9282  0.7823 -0.9993
 8308SOL    HW226919   4.431   4.023   4.129 -2.4090 -3.5726  0.8898
 8309SOL     OW26920   2.913   0.792   1.354 -0.2516 -0.2713 -0.1834
 8309SOL    HW126921   2.942   0.702   1.334 -1.3389 -0.6171 -0.2463
 8309SOL    HW226922   2.833   0.803   1.302  0.4212  1.1080 -0.9732
 8310SOL     OW26923   0.975   4.623   1.907  0.4752  0.3669  0.5705
 8310SOL    HW126924   0.985   4.554   1.842  1.3169  0.2265  0.8348
 8310SOL    HW226925   0.943   4.578   1.985  2.0482  0.0614  1.0824
 8311SOL     OW26926   1.275   4.034   1.602 -0.4716  0.4733  0.2655
 8311SOL    HW126927   1.281   4.020   1.508  0.3507  0.5998  0.2977
 8311SOL    HW226928   1.181   4.043   1.619 -1.0852 -3.5521  0.0480
 8312SOL     OW26929   0.338   7.456   4.924 -0.1976 -0.6876  0.4642
 8312SOL    HW126930   0.346   7.368   4.888 -0.1048 -0.2643 -0.6220
 8312SOL    HW226931   0.411   7.504   4.883 -0.0625 -0.1851  1.2771
 8313SOL     OW26932   7.017   8.397   0.736  0.4503 -0.2294 -0.1981
 8313SOL    HW126933   7.013   8.337   0.662  0.1153 -1.8721  1.0980
 8313SOL    HW226934   6.929   8.392   0.775 -0.1809  2.4542 -1.0213
 8314SOL     OW26935   2.813   7.189   4.405 -0.0274 -0.1367 -0.4592
 8314SOL    HW126936   2.723   7.165   4.428  0.3906  0.7145  2.3344
 8314SOL    HW226937   2.803   7.267   4.351 -0.9514  0.5713  0.6945
 8315SOL     OW26938   0.909   7.718   4.898  0.3347  0.2535  0.1567
 8315SOL    HW126939   0.935   7.628   4.877  2.5581  0.0827  3.0978
 8315SOL    HW226940   0.824   7.709   4.940 -0.7625 -0.1044 -1.9956
 8316SOL     OW26941   8.713   8.118   4.299 -0.2308  0.3036  0.4470
 8316SOL    HW126942   8.719   8.089   4.390 -0.3133  0.2324  0.4304
 8316SOL    HW226943   8.706   8.213   4.304  1.8697  0.5139  0.4354
 8317SOL     OW26944   1.365   0.339   1.052 -0.7577 -0.2754 -0.0131
 8317SOL    HW126945   1.285   0.351   1.104  1.3539 -1.4348  3.9619
 8317SOL    HW226946   1.417   0.417   1.071 -0.1284 -0.4650 -0.9171
 8318SOL     OW26947   0.365   1.087   7.693 -0.7198 -0.3832 -0.2702
 8318SOL    HW126948   0.343   1.010   7.747  0.9829 -1.6939 -1.3383
 8318SOL    HW226949   0.460   1.094   7.699 -0.9631  3.1120  1.6033
 8319SOL     OW26950   1.910   0.911   8.273  0.2668  0.5769 -0.1668
 8319SOL    HW126951   1.914   0.952   8.187 -4.5889  2.5338  0.2207
 8319SOL    HW226952   1.857   0.832   8.260 -0.3488  0.7866  0.9420
 8320SOL     OW26953   4.608   2.498   7.897 -0.0051 -0.0889  0.5216
 8320SOL    HW126954   4.549   2.427   7.872  2.1358 -1.0950 -2.1274
 8320SOL    HW226955   4.611   2.555   7.820  1.3371  0.7305  1.1477
 8321SOL     OW26956   5.192   2.955   0.372  0.2218  0.0440  0.6573
 8321SOL    HW126957   5.167   2.978   0.283  2.9269 -0.8642 -0.4335
 8321SOL    HW226958   5.240   3.031   0.405 -0.9314  0.4538  1.4464
 8322SOL     OW26959   3.150   2.467   7.790 -0.1716 -0.3990  0.4909
 8322SOL    HW126960   3.182   2.416   7.865 -0.7983  0.5481  1.4183
 8322SOL    HW226961   3.177   2.557   7.808  1.6957 -0.4553 -1.5502
 8323SOL     OW26962   3.622   0.898   0.287  0.1663  0.2610  0.0161
 8323SOL    HW126963   3.599   0.805   0.292 -0.9068  0.4870 -0.5566
 8323SOL    HW226964   3.714   0.901   0.315  0.0181 -0.8836  0.6981
 8324SOL     OW26965   8.768   8.078   4.581 -0.1546 -0.1023 -0.2023
 8324SOL    HW126966   8.845   8.021   4.574 -0.3899 -0.4222 -0.2371
 8324SOL    HW226967   8.803   8.162   4.612  0.1334 -0.4358  0.4112
 8325SOL     OW26968   7.890   4.286   8.019 -0.6620  0.2209  0.1709
 8325SOL    HW126969   7.890   4.197   7.984 -0.2155 -1.2652  3.5018
 8325SOL    HW226970   7.801   4.300   8.050 -0.3284  0.1793  1.2102
 8326SOL     OW26971   6.942   1.945   0.459 -0.3188 -0.4322 -0.4677
 8326SOL    HW126972   6.934   2.040   0.463 -0.6388 -0.4661 -0.3100
 8326SOL    HW226973   7.036   1.929   0.462 -0.2972 -0.1658  0.3815
 8327SOL     OW26974   4.705   6.226   2.046 -0.5902  0.6910 -0.5373
 8327SOL    HW126975   4.771   6.163   2.076  0.5094  1.3349 -1.5194
 8327SOL    HW226976   4.630   6.172   2.022  0.0340 -0.1815 -0.5730
 8328SOL     OW26977   7.028   5.575   6.636 -0.1630 -0.0379  0.4066
 8328SOL    HW126978   7.019   5.481   6.649  0.3130 -0.0046  1.0401
 8328SOL    HW226979   6.986   5.592   6.552  0.8210 -1.0047 -0.3053
 8329SOL     OW26980   3.870   8.797   1.845  0.2451  0.2116 -0.4857
 8329SOL    HW126981   3.933   8.782   1.915  0.5792 -0.8209 -0.9846
 8329SOL    HW226982   3.788   8.819   1.890  0.3425 -0.8626  0.2494
 8330SOL     OW26983   0.209   5.600   7.601  0.1666 -0.1643  0.5225
 8330SOL    HW126984   0.299   5.608   7.569  0.2155 -0.1326  0.6657
 8330SOL    HW226985   0.202   5.510   7.632 -0.1548 -0.4605 -0.3962
 8331SOL     OW26986   2.325   5.838   4.478  0.2261  0.1147  0.2027
 8331SOL    HW126987   2.366   5.812   4.396 -0.8130  1.5728 -0.8308
 8331SOL    HW226988   2.379   5.911   4.510  1.4265 -1.3023  1.5762
 8332SOL     OW26989   5.435   2.161   3.884 -0.3605  0.3725 -0.0294
 8332SOL    HW126990   5.470   2.158   3.795 -1.1663 -0.4167 -0.3349
 8332SOL    HW226991   5.512   2.177   3.939 -0.0552  2.2839 -0.9483
 8333SOL     OW26992   6.312   2.424   3.933  0.1814 -0.0250 -0.0431
 8333SOL    HW126993   6.379   2.397   3.995  1.3141 -0.8059 -1.5355
 8333SOL    HW226994   6.346   2.396   3.848 -2.4349 -1.2612 -0.7835
 8334SOL     OW26995   0.998   0.394   6.915  0.0214  0.1003 -0.4141
 8334SOL    HW126996   0.940   0.466   6.940  0.5297  1.2269 -2.3042
 8334SOL    HW226997   0.986   0.385   6.821  0.6848 -1.6803 -0.3501
 8335SOL     OW26998   4.508   2.259   4.562 -0.4734  0.2109 -0.2329
 8335SOL    HW126999   4.511   2.167   4.591 -2.6040  0.8354  2.4034
 8335SOL    HW227000   4.442   2.259   4.493 -1.1257 -0.1432  0.3718
 8336SOL     OW27001   1.444   0.462   1.594 -0.7260 -0.0095 -0.3783
 8336SOL    HW127002   1.536   0.461   1.623 -0.2225 -0.4573 -1.9103
 8336SOL    HW227003   1.410   0.376   1.618 -0.6254  0.0116 -0.1616
 8337SOL     OW27004   1.974   8.430   8.832 -0.0885  0.5018 -0.0847
 8337SOL    HW127005   2.049   8.444   8.890 -0.0912  1.0088 -0.2025
 8337SOL    HW227006   1.994   8.347   8.787 -0.1259  0.0652  0.6862
 8338SOL     OW27007   7.319   7.799   3.102 -0.0413  0.0188 -0.0016
 8338SOL    HW127008   7.345   7.711   3.129 -2.4746 -0.6702  0.2765
 8338SOL    HW227009   7.353   7.807   3.013  1.6167 -0.5283  0.5259
 8339SOL     OW27010   1.854   2.309   4.155  0.2409  0.5277 -0.8739
 8339SOL    HW127011   1.778   2.261   4.121 -0.0205  0.5575 -0.3418
 8339SOL    HW227012   1.880   2.259   4.233 -1.7021  2.6958  1.3177
 8340SOL     OW27013   7.026   3.631   2.681  0.0826  0.4827 -0.0681
 8340SOL    HW127014   7.095   3.583   2.634 -0.7071 -0.6991 -0.0550
 8340SOL    HW227015   7.069   3.664   2.760  0.6149 -0.3073 -0.0198
 8341SOL     OW27016   6.532   4.875   5.370  0.3544  0.3524  0.8074
 8341SOL    HW127017   6.617   4.870   5.414 -0.1587  0.7969  1.8772
 8341SOL    HW227018   6.467   4.865   5.440 -0.4877 -0.7777 -0.0969
 8342SOL     OW27019   2.464   2.598   3.166 -0.4162  0.3059  0.3759
 8342SOL    HW127020   2.497   2.542   3.237 -0.0973  0.3325  0.2517
 8342SOL    HW227021   2.371   2.607   3.184 -1.0913 -2.5520 -1.1206
 8343SOL     OW27022   2.558   5.907   2.435  0.2670  0.1562  0.3319
 8343SOL    HW127023   2.649   5.878   2.447  0.4714  0.3982 -0.5160
 8343SOL    HW227024   2.557   5.946   2.347 -0.5901  0.4293  0.4518
 8344SOL     OW27025   8.219   2.431   4.107 -0.9087  0.2252 -0.9729
 8344SOL    HW127026   8.292   2.483   4.073 -1.6315  0.8135 -1.6796
 8344SOL    HW227027   8.152   2.496   4.131 -1.1728 -0.2985 -0.2760
 8345SOL     OW27028   1.222   2.003   8.881  0.5258  0.3848 -0.3834
 8345SOL    HW127029   1.264   1.917   8.878  1.2145  0.7001 -0.1142
 8345SOL    HW227030   1.128   1.985   8.884  0.6968 -0.4181  1.8853
 8346SOL     OW27031   3.559   0.407   3.555 -0.1489  0.1074 -0.2834
 8346SOL    HW127032   3.467   0.390   3.534  0.3988 -1.2351 -1.8521
 8346SOL    HW227033   3.597   0.438   3.473  0.9430 -0.0454  0.1410
 8347SOL     OW27034   7.757   7.388   1.815  0.1206  0.2569 -0.6022
 8347SOL    HW127035   7.727   7.457   1.756 -2.4775 -2.4548 -2.7185
 8347SOL    HW227036   7.840   7.359   1.777  1.3109  2.1370  0.3814
 8348SOL     OW27037   0.550   0.515   8.175  0.1019  0.2998  0.0895
 8348SOL    HW127038   0.587   0.431   8.149  1.3347  1.2103 -1.3046
 8348SOL    HW227039   0.627   0.569   8.197 -0.5127  1.5576 -0.6975
 8349SOL     OW27040   6.226   8.717   5.492  0.1083 -0.4923  0.1785
 8349SOL    HW127041   6.215   8.698   5.399 -0.0176 -1.0270  0.3015
 8349SOL    HW227042   6.291   8.788   5.495 -1.7242  1.3252 -0.4642
 8350SOL     OW27043   2.016   7.237   5.867  0.1301  0.0521  0.2033
 8350SOL    HW127044   1.974   7.318   5.894  1.7266  0.9447  0.1167
 8350SOL    HW227045   1.987   7.172   5.931  2.3665  1.6888  3.1303
 8351SOL     OW27046   8.761   5.135   5.032  0.9012 -0.1628  0.0621
 8351SOL    HW127047   8.856   5.128   5.020  0.9211  0.2062 -0.0109
 8351SOL    HW227048   8.724   5.081   4.962  1.0658 -1.0886  0.6711
 8352SOL     OW27049   0.809   1.542   8.566  0.4255 -0.1063 -0.2322
 8352SOL    HW127050   0.832   1.545   8.659  1.6965 -2.4897 -0.3882
 8352SOL    HW227051   0.717   1.516   8.564 -0.0219  1.3542  0.3401
 8353SOL     OW27052   4.396   4.075   3.492  0.0480  0.1146 -0.4015
 8353SOL    HW127053   4.341   4.069   3.414 -0.1941 -2.7813 -0.1252
 8353SOL    HW227054   4.358   4.011   3.553  0.2901  2.1739  2.0984
 8354SOL     OW27055   3.151   5.190   3.704 -0.4633  0.7175  0.3350
 8354SOL    HW127056   3.138   5.243   3.783 -0.0578 -1.7168  2.1683
 8354SOL    HW227057   3.233   5.221   3.667  0.5540  0.4001  2.2343
 8355SOL     OW27058   1.576   2.681   5.823 -0.1507 -0.0113  0.5182
 8355SOL    HW127059   1.586   2.736   5.900  0.1011 -0.4075  0.7729
 8355SOL    HW227060   1.666   2.668   5.791 -0.0128 -1.6146  1.4169
 8356SOL     OW27061   6.213   1.664   2.803 -0.0932 -0.6430  0.0721
 8356SOL    HW127062   6.255   1.653   2.717 -0.9709 -1.1959 -0.2951
 8356SOL    HW227063   6.282   1.703   2.857 -0.3021  2.3138 -1.5740
 8357SOL     OW27064   8.453   5.591   1.597  0.2405 -0.1863 -0.7992
 8357SOL    HW127065   8.359   5.606   1.605  0.0548 -1.6060 -0.0537
 8357SOL    HW227066   8.482   5.571   1.686  0.8462 -1.7946 -1.3179
 8358SOL     OW27067   6.261   5.238   5.721 -0.2630 -0.6721 -0.2436
 8358SOL    HW127068   6.239   5.164   5.777 -2.0278  0.7193  1.0553
 8358SOL    HW227069   6.267   5.312   5.782 -1.9208  0.8545 -1.8125
 8359SOL     OW27070   7.164   0.216   6.085  0.4892 -0.0359  0.6102
 8359SOL    HW127071   7.068   0.216   6.090  0.3490 -1.8769 -0.8852
 8359SOL    HW227072   7.187   0.124   6.071  2.2172  0.7151 -2.3370
 8360SOL     OW27073   2.449   2.352   6.904  0.7699 -0.1783  0.0339
 8360SOL    HW127074   2.536   2.389   6.916  0.7569  0.0156 -0.4479
 8360SOL    HW227075   2.417   2.336   6.992  0.4358  1.7432  0.2917
 8361SOL     OW27076   8.493   4.919   3.714 -0.3330 -0.2967  0.0246
 8361SOL    HW127077   8.588   4.912   3.721 -0.2635  0.2613 -0.2855
 8361SOL    HW227078   8.479   4.991   3.653 -0.9626 -1.2745 -1.0221
 8362SOL     OW27079   5.296   0.433   4.290 -0.7322 -0.9235 -0.2418
 8362SOL    HW127080   5.330   0.455   4.377  0.7172  0.0920 -1.0199
 8362SOL    HW227081   5.373   0.433   4.234 -1.6981 -1.1567 -1.6145
 8363SOL     OW27082   0.633   3.012   8.602 -0.2541  0.4141  0.0467
 8363SOL    HW127083   0.553   3.055   8.571 -0.2221  1.9748  1.9017
 8363SOL    HW227084   0.692   3.013   8.527 -0.9010  2.0698 -0.4989
 8364SOL     OW27085   1.234   3.791   0.461 -0.3305  0.0725  0.0243
 8364SOL    HW127086   1.142   3.767   0.449  0.0019 -1.5460  0.3878
 8364SOL    HW227087   1.277   3.762   0.380 -0.4552  2.9235 -1.1627
 8365SOL     OW27088   4.248   5.546   5.104 -0.0605 -0.2155 -0.1721
 8365SOL    HW127089   4.167   5.496   5.093 -0.0253 -0.0135 -1.4801
 8365SOL    HW227090   4.259   5.552   5.199 -1.0444 -1.0992  0.0250
 8366SOL     OW27091   3.057   5.030   4.472  1.0120 -0.0184  0.3300
 8366SOL    HW127092   2.987   5.068   4.419  0.9661  0.2144  0.5532
 8366SOL    HW227093   3.138   5.058   4.429  0.9885 -2.4396 -1.4470
 8367SOL     OW27094   7.201   6.005   4.214 -0.1888 -0.5335 -0.0562
 8367SOL    HW127095   7.292   5.978   4.224 -0.6697 -1.7515  1.3854
 8367SOL    HW227096   7.180   6.051   4.296 -0.6924  0.3157 -0.6416
 8368SOL     OW27097   5.268   0.732   8.162 -0.2441 -0.1631  0.1403
 8368SOL    HW127098   5.192   0.783   8.193 -1.0036 -1.4383  0.4475
 8368SOL    HW227099   5.231   0.648   8.136  0.9481 -0.4556 -0.6597
 8369SOL     OW27100   4.613   3.764   1.374  0.9397 -0.0689  0.1566
 8369SOL    HW127101   4.640   3.812   1.452  2.0650 -2.0670  1.0752
 8369SOL    HW227102   4.625   3.827   1.303 -0.3059  1.8670  1.5652
 8370SOL     OW27103   5.347   3.787   7.371  0.1332 -0.1192 -0.1886
 8370SOL    HW127104   5.409   3.860   7.374 -1.3698  1.1885  0.2670
 8370SOL    HW227105   5.360   3.748   7.284  2.6155 -0.8630  0.4460
 8371SOL     OW27106   3.309   4.786   7.628  0.5559 -0.5381  0.2811
 8371SOL    HW127107   3.284   4.694   7.626  0.7364 -0.5807 -0.5759
 8371SOL    HW227108   3.383   4.789   7.688 -0.2285 -0.7348  1.2882
 8372SOL     OW27109   2.670   1.709   1.202 -0.0086  0.2572  0.0215
 8372SOL    HW127110   2.595   1.759   1.233 -0.0868 -0.1579  0.5024
 8372SOL    HW227111   2.640   1.669   1.120  0.0856  1.0646 -0.4231
 8373SOL     OW27112   3.849   4.582   3.569  0.6462  0.1076  0.5963
 8373SOL    HW127113   3.825   4.675   3.564  1.9557  0.4277 -0.3270
 8373SOL    HW227114   3.773   4.540   3.607 -0.9706  1.1860 -1.2368
 8374SOL     OW27115   4.966   7.205   4.869  0.0044 -0.2031  0.2495
 8374SOL    HW127116   5.034   7.151   4.908  0.1202 -0.5334 -0.3955
 8374SOL    HW227117   5.014   7.274   4.822 -0.1243  0.0137  0.4348
 8375SOL     OW27118   2.932   4.058   7.484  0.4820  0.9066 -0.2391
 8375SOL    HW127119   2.868   4.125   7.463 -1.1837 -1.1898 -2.5427
 8375SOL    HW227120   2.891   4.004   7.551  0.4710  0.4564 -0.5975
 8376SOL     OW27121   8.579   1.709   0.747 -0.0289 -0.2111  0.3679
 8376SOL    HW127122   8.611   1.727   0.658 -1.2606  0.6842  0.0655
 8376SOL    HW227123   8.605   1.619   0.765  1.8537  0.1904 -0.1663
 8377SOL     OW27124   0.592   8.016   5.380  0.0186 -0.5856 -0.1090
 8377SOL    HW127125   0.636   8.080   5.325  1.3103  0.3584  1.8977
 8377SOL    HW227126   0.540   7.963   5.319 -0.9864  2.2240 -1.8864
 8378SOL     OW27127   6.967   2.438   6.597 -0.5206 -0.5003 -0.1039
 8378SOL    HW127128   6.965   2.360   6.653  0.1212 -0.5048 -0.0771
 8378SOL    HW227129   7.057   2.469   6.602 -1.2631  1.6082  1.7261
 8379SOL     OW27130   1.469   2.172   0.743  0.8054  0.0422  0.6749
 8379SOL    HW127131   1.410   2.158   0.818  1.3943 -1.8868  0.8371
 8379SOL    HW227132   1.512   2.087   0.731  3.5358  1.3655  0.5190
 8380SOL     OW27133   3.912   0.393   2.945  0.1329 -0.5249  0.3990
 8380SOL    HW127134   3.931   0.393   3.039  0.4950  1.1821  0.3628
 8380SOL    HW227135   3.921   0.302   2.918  0.4695 -0.9682  1.9323
 8381SOL     OW27136   7.602   5.944   6.233 -0.3561 -0.5752 -0.1840
 8381SOL    HW127137   7.662   5.908   6.168  0.2525  0.5393 -0.2766
 8381SOL    HW227138   7.531   5.983   6.182 -0.0797 -0.0487 -0.1735
 8382SOL     OW27139   0.023   6.198   4.826  0.1857  0.2827 -0.2463
 8382SOL    HW127140   0.047   6.265   4.762 -0.1741  0.5871 -0.0675
 8382SOL    HW227141   0.090   6.205   4.895  1.5666 -1.1683 -1.3574
 8383SOL     OW27142   5.368   0.923   5.069 -0.8580  0.3651  0.0849
 8383SOL    HW127143   5.434   0.985   5.040  1.3623 -3.0676 -3.0958
 8383SOL    HW227144   5.294   0.937   5.009 -1.3167  1.3589  0.8567
 8384SOL     OW27145   7.406   7.980   1.169  0.0239 -0.4965 -0.1274
 8384SOL    HW127146   7.396   7.900   1.118  0.2906 -0.9064  0.4403
 8384SOL    HW227147   7.325   8.029   1.154 -1.3149 -2.0304  1.4753
 8385SOL     OW27148   5.972   7.860   2.874 -0.0190 -0.3815  0.5471
 8385SOL    HW127149   5.961   7.769   2.847 -0.0113  0.2004 -1.5996
 8385SOL    HW227150   5.882   7.893   2.882 -0.0134 -0.3635  0.5365
 8386SOL     OW27151   8.664   6.189   7.073  0.0921  0.3310 -0.2330
 8386SOL    HW127152   8.590   6.144   7.030  0.6119 -0.7550 -0.0195
 8386SOL    HW227153   8.742   6.152   7.031  0.5592  0.4566  0.5091
 8387SOL     OW27154   1.525   1.164   7.214 -0.2178 -0.4840 -0.5134
 8387SOL    HW127155   1.595   1.180   7.278  0.1449 -1.5874 -0.6042
 8387SOL    HW227156   1.456   1.225   7.237  0.9505  0.9417 -0.6801
 8388SOL     OW27157   4.880   8.865   0.383 -0.0785  0.4066  0.2425
 8388SOL    HW127158   4.895   8.960   0.378  0.8079  0.3809  1.9484
 8388SOL    HW227159   4.805   8.851   0.326  1.0345  1.8188 -1.7121
 8389SOL     OW27160   4.158   2.251   1.859 -0.1062  0.6461 -0.2496
 8389SOL    HW127161   4.115   2.225   1.940  1.0590 -1.2185 -0.1708
 8389SOL    HW227162   4.242   2.207   1.861  0.7079  2.0176 -1.6594
 8390SOL     OW27163   7.054   6.784   1.337 -0.4574  0.1661 -0.3675
 8390SOL    HW127164   7.019   6.710   1.286  1.4534 -0.8740 -0.2813
 8390SOL    HW227165   6.980   6.814   1.390 -0.8249 -3.0940  1.1994
 8391SOL     OW27166   6.070   1.074   8.372  0.2498  0.4671  0.4046
 8391SOL    HW127167   6.044   1.162   8.398 -3.4576 -0.4272  0.2247
 8391SOL    HW227168   5.990   1.033   8.340  1.4242 -3.5663  1.9950
 8392SOL     OW27169   1.331   6.780   2.247  0.0949 -0.1622  0.4089
 8392SOL    HW127170   1.361   6.766   2.157  1.2416  1.6965  0.4310
 8392SOL    HW227171   1.302   6.694   2.277  0.5446 -1.0037 -1.4339
 8393SOL     OW27172   5.188   2.663   6.076 -0.3430 -0.1146  0.0767
 8393SOL    HW127173   5.166   2.756   6.085  1.2601  0.2477  0.4251
 8393SOL    HW227174   5.262   2.661   6.016 -0.8540 -1.2571 -0.5582
 8394SOL     OW27175   7.860   4.704   8.839  0.5230  0.2594  0.2198
 8394SOL    HW127176   7.804   4.727   8.913 -0.9677 -2.9193  0.2799
 8394SOL    HW227177   7.800   4.674   8.771  2.0160 -0.4185 -0.8833
 8395SOL     OW27178   2.012   6.273   7.740  0.2741 -0.3124 -0.2761
 8395SOL    HW127179   1.961   6.352   7.759  1.3198  0.2580  0.1983
 8395SOL    HW227180   2.056   6.292   7.657  1.9392  0.3480  0.7119
 8396SOL     OW27181   8.092   0.112   8.858 -0.0120  0.0537  0.2213
 8396SOL    HW127182   8.061   0.058   8.931 -2.2968 -0.2542 -0.8889
 8396SOL    HW227183   8.068   0.062   8.780  2.5860  0.2656 -0.8103
 8397SOL     OW27184   7.640   0.906   8.552 -0.1905  0.0868 -0.2474
 8397SOL    HW127185   7.679   0.944   8.473 -1.2143  0.4207 -0.6037
 8397SOL    HW227186   7.565   0.962   8.571  0.0149 -0.0212  0.9468
 8398SOL     OW27187   8.716   0.086   0.105  0.3551  0.1848  0.1461
 8398SOL    HW127188   8.681  -0.001   0.126 -1.8599  1.3567  1.7512
 8398SOL    HW227189   8.754   0.117   0.187  0.5605  0.9881 -0.2426
 8399SOL     OW27190   0.978   3.254   0.310 -0.1069 -1.0265 -0.2093
 8399SOL    HW127191   0.936   3.329   0.269 -0.9048 -0.9843  0.6465
 8399SOL    HW227192   0.908   3.211   0.358  1.1088  0.0345  2.7466
 8400SOL     OW27193   7.838   5.330   3.978  0.0649  0.0152  0.7929
 8400SOL    HW127194   7.888   5.253   4.005 -0.9557 -0.3656  1.6596
 8400SOL    HW227195   7.847   5.332   3.883  1.6673 -0.0655  0.9144
 8401SOL     OW27196   1.148   1.402   5.693  0.2954 -0.4843 -0.2842
 8401SOL    HW127197   1.117   1.490   5.714  0.4689 -0.3818 -0.4505
 8401SOL    HW227198   1.213   1.415   5.625 -3.0627 -1.0439 -4.0072
 8402SOL     OW27199   1.113   4.242   7.793  0.2221  0.2169  0.3319
 8402SOL    HW127200   1.160   4.240   7.710  0.0418 -0.8257  0.2338
 8402SOL    HW227201   1.102   4.149   7.816 -0.1647  0.4842  1.2663
 8403SOL     OW27202   7.420   4.461   5.989  0.0642  0.2365 -0.3952
 8403SOL    HW127203   7.366   4.469   5.910 -0.7648  0.2080  0.1582
 8403SOL    HW227204   7.504   4.429   5.957 -0.0309  0.9033 -1.3527
 8404SOL     OW27205   5.054   8.619   5.730  0.1049  0.3637  0.1637
 8404SOL    HW127206   5.065   8.680   5.657 -1.1920  1.7945  1.1221
 8404SOL    HW227207   5.106   8.656   5.801  1.6623 -1.2125 -0.0702
 8405SOL     OW27208   5.634   0.009   0.207 -0.2673  0.9919  0.1052
 8405SOL    HW127209   5.634  -0.064   0.270 -0.8243  1.6992  0.9570
 8405SOL    HW227210   5.572  -0.018   0.139  1.2119 -0.2893 -0.7840
 8406SOL     OW27211   6.471   5.475   1.062  0.2998  0.4194  0.4238
 8406SOL    HW127212   6.535   5.432   1.119  1.1078  1.5489  0.4013
 8406SOL    HW227213   6.443   5.552   1.111 -1.3197 -0.2219  0.5707
 8407SOL     OW27214   0.591   8.014   1.766  0.0383 -0.3243  0.4560
 8407SOL    HW127215   0.683   7.992   1.780  0.4660  0.8484 -0.3931
 8407SOL    HW227216   0.562   8.052   1.849  0.2645 -0.8491  0.7792
 8408SOL     OW27217   2.128   6.329   8.746 -0.3658 -0.2640 -0.1196
 8408SOL    HW127218   2.060   6.393   8.727  0.6485  0.7847 -0.3459
 8408SOL    HW227219   2.155   6.349   8.836 -0.3111 -0.6301 -0.0516
 8409SOL     OW27220   8.122   4.918   7.019  0.3830  0.2786  0.2789
 8409SOL    HW127221   8.190   4.867   6.974  0.1353  1.1246 -1.1109
 8409SOL    HW227222   8.171   4.980   7.072  0.6802 -0.4754  0.9128
 8410SOL     OW27223   3.282   2.831   4.413 -0.1333  0.0223  0.2755
 8410SOL    HW127224   3.367   2.790   4.431 -0.2372 -0.8355 -1.0514
 8410SOL    HW227225   3.263   2.807   4.323 -1.4441  0.8459  0.3160
 8411SOL     OW27226   7.702   2.997   6.083 -0.2259  0.0170  0.0184
 8411SOL    HW127227   7.615   2.980   6.046 -0.1938 -1.6111  0.6160
 8411SOL    HW227228   7.760   2.936   6.038  0.5035  0.6180  0.1170
 8412SOL     OW27229   7.642   3.126   2.120  0.3593 -0.4149  0.4526
 8412SOL    HW127230   7.734   3.139   2.098  0.1372 -0.0328 -0.2892
 8412SOL    HW227231   7.639   3.038   2.157  0.9293 -0.6510 -0.0440
 8413SOL     OW27232   5.077   6.020   8.438  0.7355  0.4309  0.2817
 8413SOL    HW127233   5.149   6.025   8.501  2.2145 -0.4555 -1.2731
 8413SOL    HW227234   5.110   6.066   8.361 -0.8199  0.9774 -0.1009
 8414SOL     OW27235   4.779   6.712   2.825  0.0665 -0.2952 -0.1115
 8414SOL    HW127236   4.719   6.740   2.894  0.9074  1.0495  0.1224
 8414SOL    HW227237   4.795   6.792   2.774  2.1952 -0.3974  0.2760
 8415SOL     OW27238   2.159   1.240   4.033  0.8205 -0.0798 -0.1319
 8415SOL    HW127239   2.104   1.287   4.095  1.1524 -0.1324  0.2029
 8415SOL    HW227240   2.098   1.183   3.985  0.7324 -0.9859  1.0207
 8416SOL     OW27241   0.838   7.894   1.095  0.1594  0.4879  0.5086
 8416SOL    HW127242   0.928   7.924   1.081  0.3743  0.1555  1.1167
 8416SOL    HW227243   0.835   7.808   1.053 -0.1791  0.9278 -0.3984
 8417SOL     OW27244   0.605   2.738   4.278  0.5675 -0.4687 -0.4163
 8417SOL    HW127245   0.510   2.747   4.278  0.6164  0.3569  0.6736
 8417SOL    HW227246   0.635   2.800   4.211  0.2929 -2.0457 -2.0912
 8418SOL     OW27247   7.093   4.677   8.619 -0.3664 -0.4241  0.3065
 8418SOL    HW127248   7.148   4.750   8.648 -0.3078 -0.2626 -0.2030
 8418SOL    HW227249   7.130   4.600   8.662  0.3286 -0.3329 -0.1187
 8419SOL     OW27250   5.950   2.441   8.850 -0.2716 -0.0625 -0.0088
 8419SOL    HW127251   5.969   2.416   8.760  0.9341  0.5463  0.0546
 8419SOL    HW227252   5.864   2.402   8.869 -0.7687  0.2061 -1.5690
 8420SOL     OW27253   4.898   1.811   5.562 -0.1310  0.8232  0.6150
 8420SOL    HW127254   4.863   1.808   5.473 -1.1663 -0.7103  1.0246
 8420SOL    HW227255   4.873   1.726   5.600  0.6974  1.2569  2.2099
 8421SOL     OW27256   8.446   8.824   3.579  0.0510  0.0798  0.6817
 8421SOL    HW127257   8.538   8.831   3.602  0.4017  0.5000 -0.7462
 8421SOL    HW227258   8.399   8.859   3.655  1.0489 -0.3017  1.4922
 8422SOL     OW27259   8.745   5.395   7.339 -0.4146 -0.3845  0.0096
 8422SOL    HW127260   8.765   5.388   7.432 -1.2778 -2.7145  0.0970
 8422SOL    HW227261   8.811   5.339   7.296 -1.2037 -0.9152 -0.5544
 8423SOL     OW27262   3.470   8.192   4.485  0.3707  0.1411  0.2726
 8423SOL    HW127263   3.509   8.233   4.562 -0.8092 -1.4200  1.7732
 8423SOL    HW227264   3.412   8.124   4.520  1.3856 -2.0823 -2.0214
 8424SOL     OW27265   3.808   6.578   8.673 -0.1722 -0.5290 -0.2940
 8424SOL    HW127266   3.820   6.582   8.578  0.1805  1.8724 -0.2213
 8424SOL    HW227267   3.725   6.533   8.686 -0.2408 -0.8493 -1.7365
 8425SOL     OW27268   6.266   0.030   5.930  0.0579 -0.3104  0.2817
 8425SOL    HW127269   6.361   0.043   5.927 -0.0747  0.6143 -0.6215
 8425SOL    HW227270   6.230   0.114   5.901 -1.0320 -0.7573  0.3077
 8426SOL     OW27271   0.162   8.311   5.143  0.0044  0.2066  0.1740
 8426SOL    HW127272   0.255   8.324   5.123  0.1542  1.6598  1.5736
 8426SOL    HW227273   0.116   8.354   5.071  0.3931 -0.2631 -0.3733
 8427SOL     OW27274   2.079   5.230   3.415 -0.1663 -0.6904 -0.1425
 8427SOL    HW127275   2.106   5.138   3.412 -1.1228 -0.9945 -0.0960
 8427SOL    HW227276   2.035   5.245   3.331  1.0793  0.0979 -0.6689
 8428SOL     OW27277   7.224   2.713   0.279  0.6832 -0.2740  0.0451
 8428SOL    HW127278   7.138   2.748   0.303  0.0033 -0.9454 -1.2907
 8428SOL    HW227279   7.204   2.636   0.226  2.0726  0.6229 -1.8866
 8429SOL     OW27280   8.733   3.548   4.605 -0.3450  0.4067 -0.6515
 8429SOL    HW127281   8.734   3.629   4.555 -1.1286 -0.5718 -2.3109
 8429SOL    HW227282   8.820   3.511   4.594  0.5809  1.7224  1.4386
 8430SOL     OW27283   2.180   0.903   0.396  0.0090  0.4300 -0.1342
 8430SOL    HW127284   2.092   0.874   0.422  0.1135  1.4674  1.4964
 8430SOL    HW227285   2.168   0.996   0.372  0.4078  0.1786 -1.3870
 8431SOL     OW27286   2.633   2.386   6.279  0.1039 -0.0489  0.2843
 8431SOL    HW127287   2.584   2.309   6.307 -0.1488  0.6769  1.9065
 8431SOL    HW227288   2.566   2.449   6.253  0.2952 -0.1555 -0.4923
 8432SOL     OW27289   3.856   4.065   0.468 -0.4617  0.3756  0.5660
 8432SOL    HW127290   3.850   4.027   0.380  0.3772 -1.3592  1.2035
 8432SOL    HW227291   3.799   4.142   0.466 -1.3630 -0.2972 -1.1408
 8433SOL     OW27292   4.501   6.408   0.298 -0.3072  0.4926 -0.8922
 8433SOL    HW127293   4.570   6.365   0.249  0.2977 -0.3446  0.6214
 8433SOL    HW227294   4.427   6.414   0.237 -0.1930 -2.0947 -1.3817
 8434SOL     OW27295   4.327   4.531   8.555 -0.0631  0.2878 -0.2286
 8434SOL    HW127296   4.271   4.491   8.621 -0.9939 -0.1767 -1.2779
 8434SOL    HW227297   4.400   4.568   8.605 -1.3255  0.9751  1.1790
 8435SOL     OW27298   2.137   4.040   2.205 -0.7644  0.4319  0.1802
 8435SOL    HW127299   2.057   4.047   2.152  0.1175 -1.4355 -1.5477
 8435SOL    HW227300   2.205   4.014   2.142  0.7843  0.0600  1.9258
 8436SOL     OW27301   8.796   1.034   1.327  0.3527 -0.4677 -0.2768
 8436SOL    HW127302   8.740   1.105   1.356  0.0670 -0.6646 -0.3454
 8436SOL    HW227303   8.816   1.054   1.236  0.7980 -0.1406 -0.1105
 8437SOL     OW27304   6.763   2.752   2.333 -0.7552  0.2162 -0.0572
 8437SOL    HW127305   6.837   2.794   2.377 -1.8928  2.6441 -0.2845
 8437SOL    HW227306   6.698   2.741   2.403 -0.9089 -0.0970 -0.2483
 8438SOL     OW27307   6.585   3.262   5.875 -0.2451 -0.1805  0.6900
 8438SOL    HW127308   6.494   3.290   5.862 -0.2371 -0.7750 -0.9760
 8438SOL    HW227309   6.619   3.254   5.786  0.4451 -3.1761  1.1380
 8439SOL     OW27310   0.239   5.096   5.837 -0.3413  0.3362  0.6161
 8439SOL    HW127311   0.281   5.017   5.803 -0.6778  0.3058  0.2591
 8439SOL    HW227312   0.277   5.167   5.786 -3.0881  0.0417 -2.1517
 8440SOL     OW27313   8.095   0.294   5.988  0.6032 -0.5979 -0.2767
 8440SOL    HW127314   8.010   0.257   5.963  1.4182 -1.7591 -1.4606
 8440SOL    HW227315   8.157   0.258   5.924  2.0324  0.0600  0.6823
 8441SOL     OW27316   1.301   1.886   3.945 -0.3135  0.0342 -0.2987
 8441SOL    HW127317   1.386   1.903   3.905 -0.4074  2.3170  0.3447
 8441SOL    HW227318   1.247   1.962   3.921 -2.9206 -2.2939 -2.4793
 8442SOL     OW27319   4.647   7.652   5.873  0.0912  0.3754  0.0210
 8442SOL    HW127320   4.741   7.639   5.878  0.1527  0.5900 -0.5221
 8442SOL    HW227321   4.630   7.728   5.929 -0.0154 -0.7981  1.6357
 8443SOL     OW27322   8.475   5.830   6.264 -0.4238 -0.1429 -0.1331
 8443SOL    HW127323   8.535   5.759   6.286  0.3873  0.6782  0.3827
 8443SOL    HW227324   8.420   5.795   6.194  0.5953 -0.9482 -0.5427
 8444SOL     OW27325   8.563   5.267   4.614 -0.5598  0.2867 -0.4405
 8444SOL    HW127326   8.508   5.216   4.674 -0.2775 -0.1137 -0.5152
 8444SOL    HW227327   8.630   5.205   4.584  0.2989  0.9217  0.1178
 8445SOL     OW27328   4.754   1.145   5.446 -0.1248 -0.3265  0.9337
 8445SOL    HW127329   4.783   1.070   5.395  1.9557  1.2364 -0.3916
 8445SOL    HW227330   4.769   1.121   5.537  1.2021 -1.2554  0.4863
 8446SOL     OW27331   3.057   4.801   0.732 -0.5193 -0.5590  0.1992
 8446SOL    HW127332   3.144   4.777   0.764 -0.1296  0.3021 -0.2009
 8446SOL    HW227333   3.003   4.723   0.748  0.1257 -0.8106  1.1836
 8447SOL     OW27334   2.094   8.323   5.768 -0.4750  0.0941 -0.0571
 8447SOL    HW127335   2.136   8.308   5.852 -1.8455  0.0485  0.6584
 8447SOL    HW227336   2.086   8.236   5.729 -1.1252 -0.0791  0.4363
 8448SOL     OW27337   3.653   0.348   6.330 -0.3723 -0.0763  0.0849
 8448SOL    HW127338   3.697   0.316   6.252 -1.3992 -1.7414  0.1365
 8448SOL    HW227339   3.671   0.281   6.397 -2.8932 -0.8391  0.1007
 8449SOL     OW27340   7.429   3.235   5.010  0.2482 -0.0027  0.3835
 8449SOL    HW127341   7.404   3.246   5.102 -1.2327 -1.6963  0.2277
 8449SOL    HW227342   7.347   3.245   4.962  0.7207 -0.7533 -0.6063
 8450SOL     OW27343   6.552   1.967   2.500  0.3993 -0.2413  0.4995
 8450SOL    HW127344   6.622   2.006   2.554  0.1543  0.3155  0.4248
 8450SOL    HW227345   6.580   1.983   2.410 -0.0942  0.4921  0.4692
 8451SOL     OW27346   7.383   0.777   4.422  0.3816  0.2891 -0.5903
 8451SOL    HW127347   7.366   0.688   4.391 -1.0200  0.4363 -0.3111
 8451SOL    HW227348   7.343   0.780   4.509 -2.0419  1.9734 -1.6799
 8452SOL     OW27349   3.326   1.873   8.789 -0.3171  1.0044  0.3727
 8452SOL    HW127350   3.400   1.922   8.754  0.9389 -0.1541  1.2614
 8452SOL    HW227351   3.283   1.836   8.712  0.5681  0.9847 -0.1267
 8453SOL     OW27352   3.337   1.802   4.542  0.2009 -0.2858 -0.4980
 8453SOL    HW127353   3.366   1.741   4.609 -0.0821  2.3583  2.2590
 8453SOL    HW227354   3.403   1.871   4.541 -0.3847  0.3151 -2.2018
 8454SOL     OW27355   6.298   8.709   4.418  0.1612  0.3455  0.1480
 8454SOL    HW127356   6.358   8.735   4.488  1.1296  4.2961 -1.8632
 8454SOL    HW227357   6.212   8.738   4.448 -0.2034 -1.8624  1.4075
 8455SOL     OW27358   5.287   2.829   2.925  0.4751 -0.1211 -0.1750
 8455SOL    HW127359   5.347   2.902   2.939 -0.1683  0.6395 -1.2027
 8455SOL    HW227360   5.200   2.869   2.930  0.1180 -0.8039 -0.7842
 8456SOL     OW27361   5.874   8.502   0.899  0.4453  0.2987 -0.0390
 8456SOL    HW127362   5.866   8.504   0.994  0.8898 -1.5142  0.0651
 8456SOL    HW227363   5.959   8.542   0.881  0.8292 -0.3103  0.4053
 8457SOL     OW27364   2.131   2.097   5.461 -0.0915  0.2865  0.4320
 8457SOL    HW127365   2.171   2.179   5.435 -0.3696  0.7507  1.4273
 8457SOL    HW227366   2.188   2.063   5.530 -1.0695  0.6607  1.4430
 8458SOL     OW27367   5.061   6.111   6.798 -0.0356 -0.0657 -0.1672
 8458SOL    HW127368   5.120   6.038   6.817 -1.1470 -0.2729  3.0427
 8458SOL    HW227369   5.037   6.146   6.884 -1.0113  2.9303 -1.5376
 8459SOL     OW27370   6.128   2.923   2.322 -0.0992 -0.4412 -0.3122
 8459SOL    HW127371   6.036   2.936   2.299  0.0453  0.3898 -0.4601
 8459SOL    HW227372   6.159   2.856   2.260 -0.2556  0.2671 -1.1836
 8460SOL     OW27373   2.095   8.758   0.208  0.1943  0.3034 -0.6242
 8460SOL    HW127374   2.045   8.819   0.154  1.6410  1.6280 -0.5214
 8460SOL    HW227375   2.130   8.694   0.145  1.2431  1.3999 -1.1942
 8461SOL     OW27376   0.445   2.073   0.490 -0.2371 -0.4529  0.2629
 8461SOL    HW127377   0.380   2.077   0.560  0.4120  0.7789  0.8248
 8461SOL    HW227378   0.475   1.982   0.490 -1.4730 -0.8782  0.4182
 8462SOL     OW27379   8.413   0.634   1.836  0.0280 -0.2110  0.2422
 8462SOL    HW127380   8.331   0.601   1.799 -0.0780 -1.2099  1.2904
 8462SOL    HW227381   8.469   0.652   1.760 -0.9327 -0.1209 -0.4568
 8463SOL     OW27382   1.533   3.598   3.389  0.2424 -0.2120  0.8585
 8463SOL    HW127383   1.614   3.574   3.433 -0.6086 -4.5093  0.5273
 8463SOL    HW227384   1.464   3.572   3.450 -0.8858 -0.0243 -0.2892
 8464SOL     OW27385   5.607   8.468   7.488 -0.1529  0.5605 -0.5257
 8464SOL    HW127386   5.688   8.441   7.444 -0.3465  0.2889 -0.7237
 8464SOL    HW227387   5.608   8.420   7.571  0.2128  1.0731 -0.2350
 8465SOL     OW27388   2.669   4.113   3.359 -0.3198  0.0385 -0.6070
 8465SOL    HW127389   2.623   4.197   3.362 -0.1834  0.0941  0.1113
 8465SOL    HW227390   2.677   4.087   3.451 -0.0289 -0.5814 -0.8028
 8466SOL     OW27391   0.794   2.050   6.889  0.0774  0.4060  0.4031
 8466SOL    HW127392   0.884   2.044   6.855  0.2498 -0.4156  0.9629
 8466SOL    HW227393   0.749   1.974   6.851 -0.0822  0.2119  0.9730
 8467SOL     OW27394   1.217   6.245   8.583 -0.4765  0.3466  0.1678
 8467SOL    HW127395   1.154   6.298   8.535 -0.9287  1.1097  1.5536
 8467SOL    HW227396   1.277   6.308   8.623 -1.2695 -0.0970  2.1933
 8468SOL     OW27397   4.334   7.923   8.012  0.3132 -0.1111 -0.2736
 8468SOL    HW127398   4.337   8.016   8.032 -1.2898  0.0645 -0.7415
 8468SOL    HW227399   4.254   7.912   7.960  1.1247 -1.5466 -1.2772
 8469SOL     OW27400   6.346   3.041   8.631 -0.4591 -0.2601 -0.3902
 8469SOL    HW127401   6.360   3.096   8.554 -0.0973 -0.5129 -0.5086
 8469SOL    HW227402   6.251   3.031   8.637 -0.6777  1.8448  0.6770
 8470SOL     OW27403   3.621   6.475   0.499 -0.4202 -0.8755  0.3138
 8470SOL    HW127404   3.670   6.446   0.576  1.7432  0.8140 -0.3286
 8470SOL    HW227405   3.658   6.560   0.477 -2.4108 -0.3578 -1.3822
 8471SOL     OW27406   3.140   7.140   6.245  0.1304  0.3106  0.6527
 8471SOL    HW127407   3.090   7.133   6.327 -0.8529 -0.2304  0.0276
 8471SOL    HW227408   3.116   7.061   6.196  0.4936  0.7737 -0.2834
 8472SOL     OW27409   6.033   0.708   5.867  0.7613 -0.1553 -0.5143
 8472SOL    HW127410   5.948   0.689   5.906 -0.0657  0.0166 -2.1090
 8472SOL    HW227411   6.095   0.652   5.914 -0.7192 -2.6598 -1.3511
 8473SOL     OW27412   5.992   4.098   5.051 -0.5175  0.1106 -0.3455
 8473SOL    HW127413   6.080   4.061   5.046  0.0732  1.5494 -1.0545
 8473SOL    HW227414   5.982   4.125   5.142 -1.6334 -3.2208  0.6852
 8474SOL     OW27415   4.685   0.539   4.625  0.5563  0.1859  0.2290
 8474SOL    HW127416   4.643   0.620   4.598 -1.8736 -1.5080 -1.4532
 8474SOL    HW227417   4.768   0.538   4.578  0.0294  1.0953 -0.7685
 8475SOL     OW27418   4.108   8.235   5.417 -0.0567  0.3233  0.5030
 8475SOL    HW127419   4.125   8.222   5.510 -0.1014  1.2100  0.6472
 8475SOL    HW227420   4.034   8.178   5.398  0.3743 -0.3628  0.8520
 8476SOL     OW27421   7.623   7.844   2.705 -0.0368 -0.3791 -0.1268
 8476SOL    HW127422   7.564   7.828   2.779  0.1262 -0.1639  0.0497
 8476SOL    HW227423   7.589   7.788   2.635 -0.4557 -0.2480 -0.0284
 8477SOL     OW27424   0.903   3.115   5.078 -0.0395 -0.0052  0.2256
 8477SOL    HW127425   0.831   3.165   5.039 -0.2934 -1.1958 -0.8825
 8477SOL    HW227426   0.980   3.141   5.027 -0.0895 -0.3915 -0.0494
 8478SOL     OW27427   7.328   7.283   7.749 -0.0413 -0.2026 -0.1895
 8478SOL    HW127428   7.378   7.364   7.760 -0.4669 -0.0640  0.9042
 8478SOL    HW227429   7.384   7.215   7.787 -0.1689 -0.2343 -0.0557
 8479SOL     OW27430   0.226   1.098   2.056 -0.2024  0.4422 -0.6231
 8479SOL    HW127431   0.139   1.104   2.017 -0.7572  1.8134  0.7095
 8479SOL    HW227432   0.286   1.122   1.986 -1.0150  1.0294 -1.1297
 8480SOL     OW27433   3.403   5.410   7.125  0.9183 -0.3149  0.0180
 8480SOL    HW127434   3.322   5.461   7.130  1.2902  0.2979 -0.1245
 8480SOL    HW227435   3.378   5.329   7.081  0.2836 -0.3334  0.4079
 8481SOL     OW27436   5.383   2.571   7.932  0.4271  0.8137  0.1730
 8481SOL    HW127437   5.388   2.478   7.955  1.9043  0.7589 -0.2755
 8481SOL    HW227438   5.289   2.590   7.931  0.1095 -0.5909  0.5693
 8482SOL     OW27439   8.556   1.206   5.710 -0.6771  0.2215  0.5557
 8482SOL    HW127440   8.537   1.176   5.622  2.0675  0.1359 -0.0960
 8482SOL    HW227441   8.594   1.293   5.698  0.9695 -0.3277  1.4847
 8483SOL     OW27442   2.040   4.925   1.063  0.1283  0.3339  0.4368
 8483SOL    HW127443   1.995   5.009   1.052 -1.5853 -0.5519  0.2546
 8483SOL    HW227444   2.058   4.896   0.973  1.2687  0.7833  0.5179
 8484SOL     OW27445   8.324   0.495   2.265  0.0613 -0.0267 -0.7904
 8484SOL    HW127446   8.279   0.531   2.189 -1.0904  1.1456  0.3990
 8484SOL    HW227447   8.398   0.555   2.279 -1.5325  1.6624  0.8494
 8485SOL     OW27448   8.824   0.707   0.934  0.0815 -0.2664  0.0204
 8485SOL    HW127449   8.862   0.683   1.019  2.0706  0.0304 -0.7332
 8485SOL    HW227450   8.850   0.635   0.876  0.9988  0.7973 -0.9143
 8486SOL     OW27451   7.859   0.533   8.497  0.2487 -0.2075 -0.2065
 8486SOL    HW127452   7.857   0.438   8.501  0.3592 -0.2017  0.0649
 8486SOL    HW227453   7.769   0.560   8.517  0.6666 -0.2055  1.9395
 8487SOL     OW27454   0.848   3.516   1.195  0.1533 -0.4800  0.0807
 8487SOL    HW127455   0.776   3.462   1.161 -1.1268  0.1955  1.5971
 8487SOL    HW227456   0.866   3.481   1.282 -0.7393  1.4656  1.1276
 8488SOL     OW27457   6.008   6.247   2.460 -0.2143 -0.5994  0.2508
 8488SOL    HW127458   6.017   6.173   2.520 -1.2740 -0.7337  0.2672
 8488SOL    HW227459   6.013   6.208   2.373  1.4651 -0.3876  0.2106
 8489SOL     OW27460   3.343   4.418   8.216 -0.2036  0.0156  0.6189
 8489SOL    HW127461   3.312   4.338   8.172  1.1141  0.2553 -0.7800
 8489SOL    HW227462   3.285   4.426   8.292 -0.0295 -2.5803  1.1168
 8490SOL     OW27463   5.857   3.928   8.761 -0.1155 -0.0048 -0.2611
 8490SOL    HW127464   5.910   3.959   8.687  1.3414 -0.2576  0.6458
 8490SOL    HW227465   5.767   3.934   8.729  0.3381  1.7557 -1.3809
 8491SOL     OW27466   2.160   5.357   7.094  0.3677 -0.2799 -0.3839
 8491SOL    HW127467   2.186   5.380   7.005  0.5814 -1.0488 -0.5302
 8491SOL    HW227468   2.225   5.292   7.122 -0.9632 -1.7319 -0.5109
 8492SOL     OW27469   1.661   8.507   0.859  0.1831  0.2040 -0.4053
 8492SOL    HW127470   1.631   8.597   0.862 -0.9733 -0.2009  1.1921
 8492SOL    HW227471   1.597   8.462   0.803 -0.3719  0.0085  0.3629
 8493SOL     OW27472   0.865   6.168   8.221 -0.1536  0.1457 -0.0536
 8493SOL    HW127473   0.865   6.263   8.230 -0.3261  0.1876 -0.4610
 8493SOL    HW227474   0.778   6.147   8.186 -0.8787 -0.3543  1.9155
 8494SOL     OW27475   5.124   2.820   8.097  0.7726 -0.2284 -0.3187
 8494SOL    HW127476   5.075   2.893   8.133 -0.4692 -1.1795 -0.0054
 8494SOL    HW227477   5.057   2.759   8.067  1.7501 -1.6445  0.2540
 8495SOL     OW27478   3.049   6.913   2.758 -0.3917  0.1377 -0.1454
 8495SOL    HW127479   3.057   7.006   2.737  2.1395  0.2480  0.9130
 8495SOL    HW227480   3.112   6.899   2.829 -2.3231 -1.9549  1.2986
 8496SOL     OW27481   5.018   6.550   1.753 -0.2223 -0.0954  0.2025
 8496SOL    HW127482   4.942   6.492   1.763 -0.6421  0.4258  0.1394
 8496SOL    HW227483   5.028   6.591   1.839  0.4621 -0.7192  0.4270
 8497SOL     OW27484   3.867   8.249   0.366 -0.0539 -0.4150  0.0216
 8497SOL    HW127485   3.928   8.228   0.295  2.2724 -0.2672  1.8588
 8497SOL    HW227486   3.829   8.165   0.390  0.9264 -0.8398  0.1298
 8498SOL     OW27487   0.051   5.159   1.097 -0.5805 -0.1000 -0.2633
 8498SOL    HW127488  -0.042   5.146   1.116 -1.0536 -0.8622 -2.8099
 8498SOL    HW227489   0.084   5.071   1.076  0.0509  0.5227 -2.0168
 8499SOL     OW27490   0.019   5.913   7.844 -0.2390  0.8382  0.1315
 8499SOL    HW127491   0.021   5.991   7.899  0.6910  0.9530 -0.0498
 8499SOL    HW227492   0.110   5.888   7.834 -0.5783 -0.9232  1.0779
 8500SOL     OW27493   2.196   5.378   6.027  0.6709 -0.0933  0.4703
 8500SOL    HW127494   2.233   5.420   5.950  2.2255  0.4137  1.4473
 8500SOL    HW227495   2.109   5.415   6.035  0.1803 -0.7077 -1.4393
 8501SOL     OW27496   3.642   3.478   8.302 -0.5560 -0.4881 -0.1780
 8501SOL    HW127497   3.651   3.403   8.243 -1.0876 -2.1522  1.7387
 8501SOL    HW227498   3.725   3.526   8.292  0.1862 -1.8359 -0.8040
 8502SOL     OW27499   5.749   7.906   0.195  0.1446  0.3206 -0.5327
 8502SOL    HW127500   5.795   7.841   0.142  0.8141  0.3511  0.0016
 8502SOL    HW227501   5.775   7.990   0.158  0.3773  0.3306 -0.3503
 8503SOL     OW27502   0.349   3.796   3.186  1.2772  0.3510 -0.0204
 8503SOL    HW127503   0.379   3.885   3.204  1.0373  0.3091  0.6022
 8503SOL    HW227504   0.381   3.745   3.261  3.0954 -0.4772 -1.2704
 8504SOL     OW27505   1.502   8.030   3.966 -0.2471  0.0066  0.5810
 8504SOL    HW127506   1.559   7.953   3.972 -1.3283 -1.2489 -2.7824
 8504SOL    HW227507   1.558   8.104   3.988  1.0419 -1.6287  3.1586
 8505SOL     OW27508   5.149   8.206   4.602 -0.4038  0.5655  0.4094
 8505SOL    HW127509   5.110   8.181   4.519 -1.4366 -0.1671  1.0987
 8505SOL    HW227510   5.239   8.232   4.579  0.0527 -1.6995 -0.6557
 8506SOL     OW27511   2.121   3.243   4.491  0.3957  0.1341 -0.2789
 8506SOL    HW127512   2.165   3.295   4.558 -0.3370  2.2625 -1.3530
 8506SOL    HW227513   2.032   3.277   4.489  0.1148 -0.6032 -1.6062
 8507SOL     OW27514   3.604   1.410   4.541  0.4833  0.2804  0.2268
 8507SOL    HW127515   3.537   1.411   4.472  0.2308  1.0724  0.4785
 8507SOL    HW227516   3.687   1.406   4.494  0.3019  0.5142 -0.1157
 8508SOL     OW27517   4.284   4.161   2.884  0.2666  0.4066  0.0491
 8508SOL    HW127518   4.360   4.208   2.852  1.3392 -0.7207  0.8077
 8508SOL    HW227519   4.240   4.222   2.944 -0.2722  1.5681 -1.4779
 8509SOL     OW27520   7.474   3.370   5.648 -0.3251 -0.4284  0.0649
 8509SOL    HW127521   7.418   3.294   5.630 -0.4093 -0.3789  0.1131
 8509SOL    HW227522   7.462   3.427   5.572 -1.3864  0.1955  0.6628
 8510SOL     OW27523   3.649   0.038   2.822  0.3528 -0.0965 -0.0454
 8510SOL    HW127524   3.674   0.000   2.738  1.7858 -0.2456  0.4197
 8510SOL    HW227525   3.595   0.114   2.799  1.6306  0.5107 -1.1365
 8511SOL     OW27526   1.384   8.032   4.314  0.1795 -0.5132 -0.3539
 8511SOL    HW127527   1.432   8.106   4.277 -1.9341  1.2649  0.2879
 8511SOL    HW227528   1.453   7.973   4.346  2.0146  2.4941  1.7591
 8512SOL     OW27529   8.255   2.080   7.076 -0.2134  0.1765 -0.0908
 8512SOL    HW127530   8.283   2.132   7.001 -1.1145  1.6273  0.5245
 8512SOL    HW227531   8.250   2.143   7.148 -1.7715 -0.6569  0.5937
 8513SOL     OW27532   4.134   3.831   8.353 -0.0088  0.1475  0.4903
 8513SOL    HW127533   4.219   3.873   8.364 -0.7725  1.9095  0.0953
 8513SOL    HW227534   4.136   3.795   8.264  0.4235 -0.1049  0.5990
 8514SOL     OW27535   7.226   6.015   8.636 -0.3094 -0.1751  0.0176
 8514SOL    HW127536   7.263   5.930   8.614 -1.2029 -1.0689  1.7969
 8514SOL    HW227537   7.233   6.066   8.555  1.3198 -1.5200 -0.7461
 8515SOL     OW27538   5.879   1.110   6.639  0.6466 -0.1731 -0.1211
 8515SOL    HW127539   5.818   1.036   6.640  0.6275 -0.1542  0.1971
 8515SOL    HW227540   5.965   1.069   6.631  0.6556 -0.2433  0.3259
 8516SOL     OW27541   1.650   5.507   4.333  0.2300 -0.5941  0.3621
 8516SOL    HW127542   1.589   5.532   4.403  0.3576 -0.9044  0.5837
 8516SOL    HW227543   1.599   5.517   4.253 -0.1358 -0.9106  0.5503
 8517SOL     OW27544   6.484   1.044   1.843 -0.4146  0.3822 -0.1963
 8517SOL    HW127545   6.551   0.995   1.797 -0.9566  2.4076 -3.4750
 8517SOL    HW227546   6.532   1.104   1.900  0.4052 -0.1235 -0.3467
 8518SOL     OW27547   8.763   7.350   3.283  0.2800 -0.1888 -0.7197
 8518SOL    HW127548   8.831   7.410   3.253  0.1930  0.9939  1.2998
 8518SOL    HW227549   8.809   7.267   3.297  0.6854 -0.2362 -2.1563
 8519SOL     OW27550   0.831   0.626   8.609  0.2382 -0.4495 -0.2845
 8519SOL    HW127551   0.897   0.692   8.629  0.1911  0.2126 -2.1499
 8519SOL    HW227552   0.778   0.665   8.540 -1.8809 -1.1324  0.8810
 8520SOL     OW27553   4.537   4.311   6.773 -0.5375 -0.1653 -0.0864
 8520SOL    HW127554   4.566   4.347   6.857 -0.9407 -0.2822  0.1065
 8520SOL    HW227555   4.498   4.226   6.795  1.3359 -1.2418 -0.6476
 8521SOL     OW27556   5.024   8.084   0.409 -0.7726  0.1872 -0.2245
 8521SOL    HW127557   4.956   8.150   0.394 -1.1493 -0.0305  0.4559
 8521SOL    HW227558   4.988   8.003   0.371 -0.7102  0.1666 -0.2398
 8522SOL     OW27559   0.427   4.250   7.837  0.3353  0.0120 -0.2971
 8522SOL    HW127560   0.433   4.345   7.849  3.8214 -0.1833  0.6121
 8522SOL    HW227561   0.450   4.214   7.923  1.6589 -1.5986 -1.2780
 8523SOL     OW27562   6.848   7.434   6.845  0.1055  0.0923  0.0728
 8523SOL    HW127563   6.904   7.496   6.797 -0.0311 -0.5969 -1.0027
 8523SOL    HW227564   6.773   7.420   6.787 -0.4683 -0.1398  0.8559
 8524SOL     OW27565   8.831   3.835   3.922  0.3963 -0.3718  0.0126
 8524SOL    HW127566   8.834   3.742   3.947 -1.5695 -0.9207 -1.5085
 8524SOL    HW227567   8.905   3.846   3.863  1.4486 -0.5992  1.2532
 8525SOL     OW27568   4.202   2.343   8.667 -0.2962  0.6710  0.1511
 8525SOL    HW127569   4.163   2.261   8.636  0.6880  0.3218 -0.2002
 8525SOL    HW227570   4.196   2.337   8.763  2.8910 -1.4828  0.3655
 8526SOL     OW27571   8.124   0.956   8.461  0.0407 -0.1499 -0.3633
 8526SOL    HW127572   8.125   1.027   8.525 -2.0103 -0.1920 -0.2177
 8526SOL    HW227573   8.094   0.879   8.511  1.7583 -1.0455 -0.6245
 8527SOL     OW27574   7.475   5.879   5.137 -0.1926 -0.1428 -0.1225
 8527SOL    HW127575   7.500   5.855   5.048 -0.4129  1.0682 -0.5339
 8527SOL    HW227576   7.398   5.935   5.125 -0.5389 -0.3994  0.8634
 8528SOL     OW27577   8.813   6.282   2.604 -0.2482 -0.3316 -0.6433
 8528SOL    HW127578   8.877   6.335   2.557  1.4202 -1.5857  0.1173
 8528SOL    HW227579   8.729   6.323   2.584  0.8427  1.8486 -1.0468
 8529SOL     OW27580   0.973   7.308   4.384 -0.1014  1.0326  0.1238
 8529SOL    HW127581   0.996   7.395   4.416 -1.3431  0.9598  1.2803
 8529SOL    HW227582   0.935   7.263   4.460 -1.9354  0.3995 -1.0945
 8530SOL     OW27583   7.541   7.857   3.844  0.2671 -0.3860  0.9642
 8530SOL    HW127584   7.474   7.925   3.852 -0.2561 -0.5736 -1.2183
 8530SOL    HW227585   7.491   7.775   3.835  0.7585 -0.5528 -0.4978
 8531SOL     OW27586   7.052   0.508   1.641  0.2636 -0.6774  0.2219
 8531SOL    HW127587   7.081   0.442   1.578 -0.4389  0.2218 -1.1097
 8531SOL    HW227588   7.087   0.479   1.725  2.8512 -0.9731 -0.8648
 8532SOL     OW27589   0.629   6.826   6.187 -0.3992 -0.4021  0.4512
 8532SOL    HW127590   0.541   6.801   6.214 -0.4650 -2.0525 -1.0809
 8532SOL    HW227591   0.627   6.823   6.092  1.1399  0.2071  0.3683
 8533SOL     OW27592   6.687   4.044   5.140  0.3116 -0.2639  0.0653
 8533SOL    HW127593   6.594   4.067   5.150  0.3199 -0.0944 -0.2200
 8533SOL    HW227594   6.701   4.040   5.046  0.5741 -0.3808  0.1073
 8534SOL     OW27595   7.911   5.697   7.900  0.1472  0.3569  0.2743
 8534SOL    HW127596   7.957   5.732   7.976  1.3663 -1.0221  0.2086
 8534SOL    HW227597   7.936   5.754   7.828  1.3727 -0.0561  0.3486
 8535SOL     OW27598   8.220   3.269   6.577  0.2350  0.1928  0.0595
 8535SOL    HW127599   8.191   3.325   6.650  1.6965 -1.5758  2.1363
 8535SOL    HW227600   8.141   3.222   6.550 -0.8696  2.6663 -1.2801
 8536SOL     OW27601   3.075   7.738   8.082 -0.0589 -0.2036  0.9263
 8536SOL    HW127602   3.020   7.668   8.117 -1.3574 -0.2114 -0.9835
 8536SOL    HW227603   3.039   7.756   7.996  1.2911  1.6909  0.6922
 8537SOL     OW27604   1.947   1.045   1.658 -0.0626  0.3435 -0.4320
 8537SOL    HW127605   1.933   1.138   1.678 -1.4647  0.2799 -1.0091
 8537SOL    HW227606   1.860   1.012   1.637  0.2557 -1.3510  0.7261
 8538SOL     OW27607   2.828   0.430   2.713  0.8202  0.1333  0.7105
 8538SOL    HW127608   2.786   0.420   2.798  0.4958  0.9608  0.6497
 8538SOL    HW227609   2.788   0.507   2.674 -1.1906 -1.8327 -1.4560
 8539SOL     OW27610   5.683   2.937   1.205 -0.3685 -0.1327  0.2161
 8539SOL    HW127611   5.710   3.006   1.145  0.1157 -0.7761 -0.3163
 8539SOL    HW227612   5.595   2.913   1.177 -0.6892  0.5154  0.6384
 8540SOL     OW27613   8.244   0.076   4.385  0.1648 -0.0265  1.0377
 8540SOL    HW127614   8.284   0.125   4.312  0.4601  0.2104  1.3567
 8540SOL    HW227615   8.161   0.045   4.349  0.8532 -0.9713  0.1943
 8541SOL     OW27616   2.638   1.291   7.505  0.6103 -0.3558  0.7481
 8541SOL    HW127617   2.694   1.231   7.456  1.9157  1.5356 -0.1911
 8541SOL    HW227618   2.552   1.281   7.463  1.1468 -0.5155 -0.3684
 8542SOL     OW27619   0.769   7.346   3.514  0.0081  0.3304  0.1965
 8542SOL    HW127620   0.739   7.417   3.572  0.7459  1.4583 -0.7438
 8542SOL    HW227621   0.831   7.389   3.456 -0.1023 -0.9571 -0.8993
 8543SOL     OW27622   0.735   1.455   0.374 -0.5130 -1.0049 -0.0931
 8543SOL    HW127623   0.704   1.391   0.439  1.5811 -1.5152  0.4960
 8543SOL    HW227624   0.729   1.539   0.419 -2.4707 -0.8485 -0.5669
 8544SOL     OW27625   4.976   0.866   6.694  0.2590 -0.5264  0.2233
 8544SOL    HW127626   4.951   0.773   6.696  0.4376 -0.5887 -0.1688
 8544SOL    HW227627   4.983   0.886   6.600  2.1950 -0.6807  0.2800
 8545SOL     OW27628   1.700   7.520   4.965  0.7943 -0.1237 -0.2762
 8545SOL    HW127629   1.645   7.593   4.937  1.8907  0.6391 -0.5259
 8545SOL    HW227630   1.658   7.486   5.044 -0.7121 -0.3871 -1.1720
 8546SOL     OW27631   3.531   0.280   2.432  0.0020 -0.0349  0.0780
 8546SOL    HW127632   3.502   0.206   2.378  0.5766 -0.3647  0.2138
 8546SOL    HW227633   3.614   0.307   2.393 -0.1265  0.4351  0.1303
 8547SOL     OW27634   1.084   7.418   7.273 -0.0911 -0.2155 -0.2154
 8547SOL    HW127635   1.058   7.509   7.259  1.3792  0.6657  2.0707
 8547SOL    HW227636   1.050   7.371   7.197 -2.8763  1.8102 -0.3796
 8548SOL     OW27637   1.763   2.870   2.697 -0.1374 -0.5108 -0.6998
 8548SOL    HW127638   1.732   2.953   2.663 -0.6709 -0.6923 -0.6630
 8548SOL    HW227639   1.740   2.806   2.630 -0.8836 -0.8180 -0.1692
 8549SOL     OW27640   1.447   5.834   4.193 -0.5172 -0.1660  0.0251
 8549SOL    HW127641   1.450   5.829   4.289  1.6692 -0.2667 -0.0023
 8549SOL    HW227642   1.462   5.744   4.165  0.6901  0.1556 -0.4014
 8550SOL     OW27643   5.710   3.942   6.195  0.3830 -0.0969  0.3039
 8550SOL    HW127644   5.774   4.001   6.235  0.8951 -0.4412 -0.0050
 8550SOL    HW227645   5.710   3.865   6.252  0.8635 -0.4472 -0.1651
 8551SOL     OW27646   7.184   4.135   1.491  0.6557  0.5370 -0.4740
 8551SOL    HW127647   7.187   4.050   1.448  2.9794  0.3416 -0.0841
 8551SOL    HW227648   7.137   4.119   1.573  2.4880 -0.8634  0.3949
 8552SOL     OW27649   2.853   7.557   7.709  0.3601  0.1188  0.2661
 8552SOL    HW127650   2.759   7.539   7.709  0.3412  0.2220 -0.5373
 8552SOL    HW227651   2.893   7.473   7.732  0.1072 -0.0950 -0.0707
 8553SOL     OW27652   3.637   8.778   6.983  0.1963  0.1358  0.4620
 8553SOL    HW127653   3.554   8.731   6.975 -0.7758  1.9194 -0.5095
 8553SOL    HW227654   3.658   8.775   7.076  0.1927 -2.1737  0.4415
 8554SOL     OW27655   4.443   3.111   2.381  0.0086 -0.4971 -0.4983
 8554SOL    HW127656   4.379   3.087   2.448  2.1647 -1.2500  1.4172
 8554SOL    HW227657   4.479   3.195   2.410  1.4858 -1.1740 -0.2703
 8555SOL     OW27658   1.222   5.206   5.381  0.4828 -0.6028  0.1493
 8555SOL    HW127659   1.225   5.260   5.460  0.0651 -0.3180 -0.0248
 8555SOL    HW227660   1.293   5.241   5.326  0.2730 -0.2852  0.0761
 8556SOL     OW27661   6.509   8.342   1.430  0.2752  0.4341  0.1709
 8556SOL    HW127662   6.563   8.415   1.460  0.1366  0.0668  1.3530
 8556SOL    HW227663   6.464   8.311   1.508  3.7889 -3.9296  0.8672
 8557SOL     OW27664   5.549   4.997   7.385 -0.1081 -0.2275  0.3894
 8557SOL    HW127665   5.638   5.029   7.393  0.1165 -0.5711 -0.5574
 8557SOL    HW227666   5.518   4.988   7.475 -0.8551  4.3474  0.8228
 8558SOL     OW27667   3.629   6.231   2.053  0.6023  0.3321  0.3815
 8558SOL    HW127668   3.700   6.186   2.100 -1.4153 -0.5770  2.7978
 8558SOL    HW227669   3.613   6.310   2.104 -0.8908 -0.1001  0.6310
 8559SOL     OW27670   0.329   6.163   3.079 -0.2072  0.4148 -0.2295
 8559SOL    HW127671   0.294   6.084   3.040  0.1866  0.2929 -0.3403
 8559SOL    HW227672   0.277   6.176   3.159 -0.9078  0.5799 -0.7061
 8560SOL     OW27673   5.869   4.298   4.297  0.3202 -0.2037  0.0077
 8560SOL    HW127674   5.912   4.222   4.256 -0.4392  0.1225 -1.4662
 8560SOL    HW227675   5.907   4.374   4.252 -0.0820  0.2132  0.3584
 8561SOL     OW27676   3.779   3.466   0.208 -0.3079 -0.0290 -0.1941
 8561SOL    HW127677   3.713   3.403   0.236 -0.6579 -0.0099 -0.9463
 8561SOL    HW227678   3.818   3.427   0.130 -0.4476  0.6206 -0.5991
 8562SOL     OW27679   6.657   5.727   6.149  0.3466  0.6001  0.4178
 8562SOL    HW127680   6.735   5.710   6.202  0.6396  0.0395 -0.1816
 8562SOL    HW227681   6.684   5.707   6.059 -0.3049  1.0082  0.1245
 8563SOL     OW27682   8.208   3.837   1.847 -0.1781 -0.4690  0.0346
 8563SOL    HW127683   8.296   3.799   1.849  0.3296  0.4914 -1.7391
 8563SOL    HW227684   8.223   3.930   1.831 -1.5120 -0.3585 -0.6788
 8564SOL     OW27685   3.843   1.317   8.808  0.0174 -0.3508 -0.1153
 8564SOL    HW127686   3.820   1.227   8.785 -1.4157 -0.3415  1.1595
 8564SOL    HW227687   3.767   1.369   8.780  0.9078  0.5175 -1.0097
 8565SOL     OW27688   8.561   5.260   8.171  0.7158  0.0412  0.3464
 8565SOL    HW127689   8.496   5.278   8.103 -0.9296  2.7031  2.4256
 8565SOL    HW227690   8.643   5.293   8.135  0.6202 -1.5802 -1.5430
 8566SOL     OW27691   0.949   2.863   4.969 -0.7266 -0.1424  0.1445
 8566SOL    HW127692   1.007   2.822   5.034 -1.6558 -1.6777  0.0617
 8566SOL    HW227693   0.939   2.953   4.999  1.6327  0.1534  0.1835
 8567SOL     OW27694   2.917   4.092   8.144  0.2512  0.3582 -0.1551
 8567SOL    HW127695   2.866   4.072   8.223 -0.8425  0.5423 -0.8083
 8567SOL    HW227696   2.907   4.186   8.131  0.6124  0.3670 -0.3989
 8568SOL     OW27697   2.818   3.718   2.424  0.0450  0.4382 -0.3019
 8568SOL    HW127698   2.784   3.664   2.495  0.2993  0.0337 -0.4869
 8568SOL    HW227699   2.857   3.656   2.362  1.4078  0.9169  0.0584
 8569SOL     OW27700   5.835   2.626   3.221  0.1968  0.5887  0.2966
 8569SOL    HW127701   5.862   2.575   3.144 -0.2929 -1.2713  1.2817
 8569SOL    HW227702   5.798   2.706   3.185 -0.2478 -0.3388 -1.4199
 8570SOL     OW27703   1.028   3.494   6.745 -0.5448  0.9766  0.0608
 8570SOL    HW127704   0.958   3.555   6.721 -0.5906  1.3093  1.0017
 8570SOL    HW227705   1.014   3.476   6.838 -0.8950 -0.9619 -0.3120
 8571SOL     OW27706   5.666   7.526   4.545 -0.0555 -0.6086 -0.6114
 8571SOL    HW127707   5.597   7.504   4.483 -1.5532  0.9392  0.4071
 8571SOL    HW227708   5.650   7.618   4.568  1.0778 -0.8091  1.2259
 8572SOL     OW27709   7.053   5.585   3.282  0.2531  0.5611  0.1612
 8572SOL    HW127710   6.968   5.581   3.237  0.7608  0.7332 -0.8602
 8572SOL    HW227711   7.056   5.506   3.336 -0.6611  0.6816  0.3983
 8573SOL     OW27712   6.804   2.468   4.512  0.4499 -0.0675  0.1091
 8573SOL    HW127713   6.777   2.552   4.549 -1.6557  0.5191 -2.4780
 8573SOL    HW227714   6.789   2.477   4.418  2.6233 -2.4883 -0.5913
 8574SOL     OW27715   6.207   8.461   6.395  0.3933 -0.4728  0.0776
 8574SOL    HW127716   6.202   8.422   6.482  0.8515  0.8025  0.6992
 8574SOL    HW227717   6.242   8.548   6.410  0.7427 -0.3280 -1.4265
 8575SOL     OW27718   0.883   5.026   7.934  0.0677  0.0682  0.7006
 8575SOL    HW127719   0.939   5.094   7.898 -0.5075  0.7981  1.1578
 8575SOL    HW227720   0.800   5.036   7.888  0.4968 -1.5075 -0.5443
 8576SOL     OW27721   4.085   2.407   4.487 -0.1577 -0.4796 -0.5400
 8576SOL    HW127722   4.146   2.478   4.506  0.2430 -0.9197 -0.1541
 8576SOL    HW227723   4.127   2.357   4.417  0.8112 -1.8206  0.9198
 8577SOL     OW27724   4.796   0.338   3.730 -0.1454 -1.1229 -0.1880
 8577SOL    HW127725   4.804   0.328   3.635 -1.5733 -0.1492 -0.4628
 8577SOL    HW227726   4.852   0.413   3.751 -0.0303 -1.1748 -0.3098
 8578SOL     OW27727   7.204   3.549   8.419  0.3405 -0.3888  0.9718
 8578SOL    HW127728   7.239   3.598   8.345 -1.1036  0.6751  0.9464
 8578SOL    HW227729   7.160   3.474   8.380  1.2608 -0.9234  0.9161
 8579SOL     OW27730   8.425   3.954   6.652 -0.3043 -0.1499  0.2707
 8579SOL    HW127731   8.477   3.933   6.574  0.1679  0.1651  0.4955
 8579SOL    HW227732   8.415   3.870   6.697  0.8131 -0.0718  0.7025
 8580SOL     OW27733   4.878   5.195   7.268 -0.1681  0.2981 -0.2612
 8580SOL    HW127734   4.903   5.103   7.262  1.1280  0.6177 -0.1678
 8580SOL    HW227735   4.796   5.201   7.220 -0.5923 -1.0109  0.2591
 8581SOL     OW27736   6.917   7.069   2.847  0.5745 -0.3034  0.2342
 8581SOL    HW127737   6.934   7.006   2.916  0.8327 -0.9302 -0.3934
 8581SOL    HW227738   6.866   7.021   2.781 -2.3986  1.0676  1.3213
 8582SOL     OW27739   0.812   3.452   0.167  0.5569 -0.7641  0.0143
 8582SOL    HW127740   0.751   3.420   0.100  0.6355  0.3614 -0.6313
 8582SOL    HW227741   0.769   3.530   0.202 -0.4823 -2.4591  2.8306
 8583SOL     OW27742   0.868   0.911   3.694 -0.2060  0.8091  0.0339
 8583SOL    HW127743   0.776   0.914   3.669 -0.5021  2.3591  1.1506
 8583SOL    HW227744   0.875   0.974   3.766  1.3343 -0.7043  1.2802
 8584SOL     OW27745   5.284   2.169   5.757  0.9230 -0.0514 -0.2422
 8584SOL    HW127746   5.325   2.117   5.827  2.7507  0.3761 -0.9311
 8584SOL    HW227747   5.328   2.139   5.677  2.1746  2.6190 -0.6482
 8585SOL     OW27748   6.786   6.721   7.855  0.6478 -0.0453 -0.3758
 8585SOL    HW127749   6.732   6.796   7.879  1.1030 -0.0469  0.7393
 8585SOL    HW227750   6.761   6.653   7.918  1.9008 -0.0602  0.1265
 8586SOL     OW27751   0.967   3.841   0.103  0.1627  0.0594 -0.1723
 8586SOL    HW127752   0.883   3.821   0.062  0.8568 -0.9649 -1.1534
 8586SOL    HW227753   1.001   3.756   0.132  2.0347  0.0524 -2.1598
 8587SOL     OW27754   2.654   3.188   5.893  0.0561  0.6625 -0.3141
 8587SOL    HW127755   2.669   3.282   5.881 -0.4880  0.8357  0.3351
 8587SOL    HW227756   2.597   3.182   5.969  1.0568 -0.2600  0.3985
 8588SOL     OW27757   7.705   7.500   5.749  0.7208 -0.2048  0.4351
 8588SOL    HW127758   7.717   7.422   5.695 -1.9628  0.1639 -0.8621
 8588SOL    HW227759   7.761   7.485   5.825 -0.9423 -4.2194  1.1162
 8589SOL     OW27760   8.039   8.216   8.308 -0.4219 -0.3890  0.1254
 8589SOL    HW127761   8.113   8.193   8.251  1.4321  1.6469  1.5192
 8589SOL    HW227762   7.965   8.225   8.249  1.2899  1.1114 -1.9781
 8590SOL     OW27763   3.571   1.943   5.368  0.2128 -0.5172  0.0098
 8590SOL    HW127764   3.591   1.976   5.280 -1.0775 -0.7640 -0.3907
 8590SOL    HW227765   3.656   1.944   5.413  0.5557  1.5128 -0.5769
 8591SOL     OW27766   7.775   4.288   7.060  0.4096 -0.0146 -0.3252
 8591SOL    HW127767   7.724   4.356   7.016  0.8757 -0.8761 -2.2879
 8591SOL    HW227768   7.859   4.331   7.079  0.1908  0.3739 -0.2157
 8592SOL     OW27769   3.346   6.152   2.145 -0.4433  0.4056  0.4946
 8592SOL    HW127770   3.425   6.167   2.094 -0.1601  0.4385  0.9382
 8592SOL    HW227771   3.287   6.107   2.085  0.3055 -0.5991  0.4911
 8593SOL     OW27772   6.304   3.126   3.482 -0.3892  0.2842  0.3384
 8593SOL    HW127773   6.326   3.198   3.423 -0.0852  0.2450  0.4045
 8593SOL    HW227774   6.294   3.050   3.425 -1.9574  0.6237  0.1092
 8594SOL     OW27775   7.991   8.543   3.760  0.0441  0.0157  0.2484
 8594SOL    HW127776   7.983   8.470   3.822 -0.1436  0.3762  0.6517
 8594SOL    HW227777   7.910   8.541   3.710 -0.4483  0.6250  1.0059
 8595SOL     OW27778   2.582   2.205   1.315 -0.4643 -0.3268  0.1892
 8595SOL    HW127779   2.504   2.204   1.370  0.8317 -0.9675  2.0892
 8595SOL    HW227780   2.632   2.282   1.345 -0.5319  0.3337 -1.2969
 8596SOL     OW27781   2.401   7.241   4.676 -0.1704 -0.0928  0.3605
 8596SOL    HW127782   2.349   7.320   4.684  0.6288  0.3779  1.0970
 8596SOL    HW227783   2.490   7.272   4.659  0.0865 -0.8391  0.2937
 8597SOL     OW27784   5.749   8.011   2.902 -0.0009  0.5313  0.0984
 8597SOL    HW127785   5.823   8.051   2.948  0.0295  0.4332  0.1332
 8597SOL    HW227786   5.702   7.962   2.970 -1.2546  2.2315  0.5286
 8598SOL     OW27787   7.916   4.443   3.987 -0.2918  0.6997 -0.2840
 8598SOL    HW127788   7.824   4.433   4.009 -0.1510  1.0322  0.4822
 8598SOL    HW227789   7.919   4.522   3.932 -0.3537  1.2098  0.4326
 8599SOL     OW27790   6.800   3.842   7.547 -0.3861 -0.3420  0.3241
 8599SOL    HW127791   6.825   3.752   7.566 -2.1733 -0.6042  1.7032
 8599SOL    HW227792   6.751   3.836   7.465 -2.0147 -0.9724  1.2800
 8600SOL     OW27793   8.649   1.690   7.357 -0.2294  0.6207  0.8687
 8600SOL    HW127794   8.712   1.759   7.340 -0.2924  0.4453 -0.1292
 8600SOL    HW227795   8.656   1.673   7.451  2.3421 -0.4526  0.5751
 8601SOL     OW27796   3.138   2.379   8.309 -0.0751 -0.6813 -0.2444
 8601SOL    HW127797   3.057   2.404   8.264 -0.5575 -0.9250  0.4821
 8601SOL    HW227798   3.191   2.459   8.308 -0.6248 -0.3111 -0.0649
 8602SOL     OW27799   2.735   7.262   5.008 -0.1246 -0.0409 -0.6079
 8602SOL    HW127800   2.765   7.272   5.098 -0.9037  0.1151 -0.3673
 8602SOL    HW227801   2.641   7.248   5.014 -0.1956  0.0171 -1.4034
 8603SOL     OW27802   1.560   4.204   4.222 -0.0682 -0.2941  0.1856
 8603SOL    HW127803   1.471   4.238   4.232 -0.5611 -1.4134 -0.2326
 8603SOL    HW227804   1.548   4.112   4.197  1.2118 -0.7159  1.0179
 8604SOL     OW27805   6.422   3.475   2.295  0.0476 -0.2755 -0.2903
 8604SOL    HW127806   6.362   3.465   2.220 -1.5258 -1.1259  1.0144
 8604SOL    HW227807   6.447   3.568   2.293  0.9163 -0.4992 -2.4679
 8605SOL     OW27808   6.136   4.902   7.734  0.1481 -0.3461  0.6732
 8605SOL    HW127809   6.082   4.823   7.725  2.1892 -1.8854  1.2485
 8605SOL    HW227810   6.072   4.973   7.744 -1.7670 -1.8946  0.1285
 8606SOL     OW27811   7.818   8.602   1.643  0.4995  0.4782 -0.2119
 8606SOL    HW127812   7.735   8.575   1.604  1.4788 -0.2096 -1.9460
 8606SOL    HW227813   7.885   8.563   1.586  2.1024 -1.5009  2.7178
 8607SOL     OW27814   5.840   8.737   8.423  0.3051  0.1887  0.2997
 8607SOL    HW127815   5.776   8.748   8.353 -0.2928 -0.2480  0.7726
 8607SOL    HW227816   5.790   8.751   8.503  0.5997 -1.0502  0.7111
 8608SOL     OW27817   7.979   5.110   4.087 -0.4458 -0.4111 -0.4634
 8608SOL    HW127818   7.980   5.038   4.150  0.1179  0.6931  0.8557
 8608SOL    HW227819   8.028   5.180   4.130 -1.8070  1.1169 -1.2699
 8609SOL     OW27820   3.159   1.875   1.650  0.2955 -0.8529  0.1926
 8609SOL    HW127821   3.088   1.841   1.704 -0.2279  0.0049  0.0562
 8609SOL    HW227822   3.224   1.907   1.713  0.0437 -0.5826  0.3152
 8610SOL     OW27823   5.999   5.608   8.009 -0.1983  0.6631  0.1552
 8610SOL    HW127824   6.059   5.533   8.008 -0.7598  0.2147 -0.0269
 8610SOL    HW227825   5.947   5.599   7.929 -0.8373  0.7827  0.5526
 8611SOL     OW27826   7.887   4.843   4.723  0.3225  0.4820  0.4020
 8611SOL    HW127827   7.947   4.803   4.785  1.6939 -0.4343 -1.4149
 8611SOL    HW227828   7.941   4.907   4.676 -0.6361  1.0436  0.0378
 8612SOL     OW27829   1.027   1.105   4.011  0.5763 -0.0954  0.0172
 8612SOL    HW127830   0.979   1.033   3.969  2.1346 -0.4095 -1.3642
 8612SOL    HW227831   0.959   1.167   4.037 -0.6228 -0.6457 -1.5805
 8613SOL     OW27832   2.922   0.285   5.426 -0.6069  0.6553  0.2407
 8613SOL    HW127833   2.960   0.260   5.342 -1.3861  1.0956 -0.2561
 8613SOL    HW227834   2.911   0.380   5.420 -2.6736  0.4357 -0.0292
 8614SOL     OW27835   0.958   7.211   5.116 -0.2534  0.1352  0.3595
 8614SOL    HW127836   0.937   7.184   5.027 -2.7580  0.0818  0.8929
 8614SOL    HW227837   0.897   7.282   5.135  0.8151  0.7411  1.7479
 8615SOL     OW27838   3.706   1.721   3.436  0.2305  0.1782 -0.8285
 8615SOL    HW127839   3.663   1.714   3.351  0.7172  0.2005 -1.0814
 8615SOL    HW227840   3.787   1.670   3.426  0.9615  1.2929 -0.8249
 8616SOL     OW27841   1.628   3.960   6.433 -0.0156 -0.4655  0.4595
 8616SOL    HW127842   1.579   4.027   6.481 -2.2182 -0.6339 -1.3859
 8616SOL    HW227843   1.653   3.895   6.500  0.1061  0.9849  1.8801
 8617SOL     OW27844   6.923   5.364   0.874 -0.0711 -0.1914 -0.1190
 8617SOL    HW127845   6.911   5.291   0.936  0.4956 -0.5210 -0.3815
 8617SOL    HW227846   6.850   5.423   0.892 -2.1933 -2.1310 -1.7573
 8618SOL     OW27847   3.021   6.979   8.361  0.2225 -0.4058  0.4480
 8618SOL    HW127848   3.079   6.963   8.435 -0.9883 -0.5992  1.3846
 8618SOL    HW227849   2.947   7.027   8.398 -0.3600 -0.4230 -0.6508
 8619SOL     OW27850   0.166   3.282   8.542 -0.0983  0.3433  0.4826
 8619SOL    HW127851   0.219   3.361   8.550  1.3268 -0.3724 -1.2187
 8619SOL    HW227852   0.228   3.210   8.552 -1.1742 -0.5603  0.8182
 8620SOL     OW27853   2.774   4.438   2.924 -0.0618  0.3223  0.2465
 8620SOL    HW127854   2.774   4.351   2.885 -0.3378 -0.2898  1.5688
 8620SOL    HW227855   2.838   4.487   2.872  0.1291 -0.6715 -0.4898
 8621SOL     OW27856   2.735   8.448   1.078 -0.3732 -0.0026  0.3383
 8621SOL    HW127857   2.794   8.523   1.074  1.0254 -1.0677  0.0483
 8621SOL    HW227858   2.651   8.482   1.050  0.3884  1.3062 -0.4725
 8622SOL     OW27859   6.411   0.835   7.724  0.2546  0.2680  0.5128
 8622SOL    HW127860   6.448   0.895   7.788 -0.9079 -0.0749  1.5274
 8622SOL    HW227861   6.487   0.807   7.672  1.1877  0.7006  1.5926
 8623SOL     OW27862   0.578   4.465   1.759  0.1820 -0.0247  0.3647
 8623SOL    HW127863   0.519   4.415   1.703 -2.1394 -2.3636  4.3847
 8623SOL    HW227864   0.659   4.413   1.761  0.5455  0.4344 -1.1871
 8624SOL     OW27865   3.667   4.489   2.386  0.0290  0.0024 -0.3133
 8624SOL    HW127866   3.613   4.451   2.455 -1.5158  0.7601 -1.0318
 8624SOL    HW227867   3.730   4.421   2.364 -1.1544 -1.2516  0.0189
 8625SOL     OW27868   7.240   2.311   5.001 -0.3597  0.4627  0.4867
 8625SOL    HW127869   7.166   2.277   4.951  0.1899  0.4876 -0.3691
 8625SOL    HW227870   7.249   2.250   5.075 -0.6699 -0.0592  0.1048
 8626SOL     OW27871   3.748   6.670   1.710  0.1068  0.2803  0.8116
 8626SOL    HW127872   3.715   6.644   1.796  0.3477 -1.3102  0.4554
 8626SOL    HW227873   3.714   6.758   1.697 -0.4590  0.3060  2.2631
 8627SOL     OW27874   7.034   4.453   2.226  0.4107  0.9903  0.2501
 8627SOL    HW127875   7.056   4.450   2.319 -0.6598 -2.6934  0.5671
 8627SOL    HW227876   7.113   4.420   2.182  0.1817  0.6662  0.0769
 8628SOL     OW27877   7.216   0.852   0.945 -0.5484  0.1005  0.8466
 8628SOL    HW127878   7.288   0.911   0.921 -1.2913  0.7324  0.0503
 8628SOL    HW227879   7.256   0.786   1.001  0.6443  0.4456  0.4412
 8629SOL     OW27880   8.679   4.754   7.754  0.4071  0.0411  0.0896
 8629SOL    HW127881   8.712   4.725   7.839  0.0141 -0.3480  0.1179
 8629SOL    HW227882   8.585   4.733   7.757  0.1328  1.2115  0.0493
 8630SOL     OW27883   8.076   3.528   1.659 -0.1917  0.4135  0.3057
 8630SOL    HW127884   8.024   3.466   1.608  2.3675  0.2256 -2.3583
 8630SOL    HW227885   8.031   3.611   1.651 -0.5962  0.0777 -1.1019
 8631SOL     OW27886   8.235   4.036   0.060 -0.4063  0.1488  0.0013
 8631SOL    HW127887   8.147   4.071   0.070 -0.1497  1.1428 -0.9637
 8631SOL    HW227888   8.284   4.106   0.017  0.5623 -0.7938 -0.4949
 8632SOL     OW27889   2.641   0.218   5.912 -0.1380  0.0090 -0.4685
 8632SOL    HW127890   2.607   0.136   5.948 -2.5863  1.2312  0.2324
 8632SOL    HW227891   2.736   0.210   5.918 -0.3575 -1.6724  2.0857
 8633SOL     OW27892   1.963   1.522   2.524  0.1146 -0.3432 -0.0310
 8633SOL    HW127893   2.055   1.547   2.532  0.6742 -2.2197 -0.0043
 8633SOL    HW227894   1.915   1.598   2.554  1.6550  0.7339 -0.1645
 8634SOL     OW27895   6.388   8.104   5.056 -0.0008  0.0204  0.3919
 8634SOL    HW127896   6.473   8.064   5.077 -0.5225 -1.1570  0.3477
 8634SOL    HW227897   6.393   8.121   4.962  0.2512  0.1221  0.4208
 8635SOL     OW27898   2.575   7.576   2.625 -0.5703 -0.1223  0.5067
 8635SOL    HW127899   2.598   7.632   2.550 -1.0828  1.4555  1.4825
 8635SOL    HW227900   2.631   7.608   2.696 -2.2639  0.5019  1.6111
 8636SOL     OW27901   1.194   0.440   2.781 -0.3489 -0.1720  0.3016
 8636SOL    HW127902   1.153   0.451   2.866 -0.1983  0.9903  0.2398
 8636SOL    HW227903   1.259   0.510   2.776 -1.4137  0.7873 -1.3772
 8637SOL     OW27904   0.515   3.520   6.723 -0.3270  0.0079 -0.2395
 8637SOL    HW127905   0.420   3.517   6.736 -0.3631 -1.0440 -0.7076
 8637SOL    HW227906   0.542   3.429   6.718  0.8722  0.2645  0.9719
 8638SOL     OW27907   2.775   4.602   7.443  0.4257 -0.6010  0.0960
 8638SOL    HW127908   2.807   4.559   7.364  0.8148  0.5863 -0.4048
 8638SOL    HW227909   2.784   4.535   7.512  1.3214 -1.2068 -0.5975
 8639SOL     OW27910   4.806   1.134   8.019 -0.9775  0.5948  0.2278
 8639SOL    HW127911   4.887   1.183   8.008 -1.3259  0.8351 -1.5818
 8639SOL    HW227912   4.750   1.192   8.070 -0.8970  1.5463 -0.7148
 8640SOL     OW27913   0.644   2.160   2.103  0.4059 -0.0552  0.1346
 8640SOL    HW127914   0.561   2.185   2.144  0.3967 -3.4635  2.7137
 8640SOL    HW227915   0.618   2.111   2.025  0.1374  1.0314 -0.4722
 8641SOL     OW27916   6.463   7.847   6.211 -0.4001  0.1625  0.2850
 8641SOL    HW127917   6.483   7.914   6.277  1.7461 -1.5832  1.5286
 8641SOL    HW227918   6.528   7.861   6.142  0.5878 -1.0600  0.9256
 8642SOL     OW27919   5.320   4.602   8.282  0.4096  0.3652 -0.0403
 8642SOL    HW127920   5.318   4.648   8.197  1.2058  1.5816  0.5682
 8642SOL    HW227921   5.363   4.519   8.263  0.2463  0.4691 -0.9070
 8643SOL     OW27922   1.931   0.252   3.998 -0.3052  0.8580  0.1329
 8643SOL    HW127923   1.859   0.203   4.038 -1.0567  0.8096 -1.2170
 8643SOL    HW227924   1.920   0.238   3.904  2.9056 -1.1912 -0.0928
 8644SOL     OW27925   3.562   6.608   0.799  0.0618 -0.6469 -0.3023
 8644SOL    HW127926   3.590   6.626   0.889 -0.8818  0.8241 -0.2692
 8644SOL    HW227927   3.608   6.528   0.775  0.3698 -1.0408  1.4738
 8645SOL     OW27928   1.237   0.320   6.729  0.0298 -0.2113  0.0059
 8645SOL    HW127929   1.283   0.360   6.656  0.2873 -0.6729 -0.0874
 8645SOL    HW227930   1.152   0.294   6.692 -0.1784  0.3210  0.0909
 8646SOL     OW27931   1.439   1.917   7.590  0.2174  0.0742  0.1121
 8646SOL    HW127932   1.362   1.949   7.637  0.0126  0.5826 -0.5546
 8646SOL    HW227933   1.492   1.996   7.574  0.7471 -0.2312  0.3221
 8647SOL     OW27934   2.123   2.521   0.789  0.4069 -0.6133  0.3500
 8647SOL    HW127935   2.123   2.604   0.837  1.4236  0.9930 -2.2036
 8647SOL    HW227936   2.030   2.502   0.774  0.1419 -0.2348  1.3959
 8648SOL     OW27937   3.425   3.518   8.768  0.2196  0.3402 -0.0901
 8648SOL    HW127938   3.481   3.594   8.785  0.5551  0.1632 -0.3966
 8648SOL    HW227939   3.409   3.520   8.674  0.6573 -0.2645 -0.1807
 8649SOL     OW27940   8.631   8.625   5.505  0.2370  0.1066 -0.1827
 8649SOL    HW127941   8.637   8.680   5.583 -1.6300 -0.2656  0.2682
 8649SOL    HW227942   8.547   8.579   5.514  1.4425 -2.3712 -0.8473
 8650SOL     OW27943   7.540   7.561   5.546 -0.0019 -0.2634 -0.8545
 8650SOL    HW127944   7.446   7.544   5.554 -0.4145  2.2207  0.5008
 8650SOL    HW227945   7.578   7.520   5.624 -0.2325  0.3370 -0.4217
 8651SOL     OW27946   6.369   4.164   8.592 -0.5503  0.0197  0.5944
 8651SOL    HW127947   6.446   4.216   8.570 -0.8634 -0.0693 -0.8016
 8651SOL    HW227948   6.353   4.182   8.684  0.1859  1.2836  0.4906
 8652SOL     OW27949   3.492   1.937   4.749  0.3849 -0.5656  0.2489
 8652SOL    HW127950   3.564   2.000   4.756  0.1352 -0.1684 -0.6311
 8652SOL    HW227951   3.524   1.871   4.687 -0.6242  0.5381 -1.5444
 8653SOL     OW27952   2.974   7.732   2.743 -0.7934 -0.4104 -0.2000
 8653SOL    HW127953   3.040   7.664   2.724  0.5722 -0.1007  2.7844
 8653SOL    HW227954   3.014   7.813   2.712  0.6275 -0.1385  2.1339
 8654SOL     OW27955   7.864   7.795   5.546 -0.6960 -0.0316 -0.0218
 8654SOL    HW127956   7.785   7.812   5.597 -0.8868  1.3585 -0.7130
 8654SOL    HW227957   7.846   7.714   5.499  0.1683 -2.3967  3.3409
 8655SOL     OW27958   6.147   4.315   8.596  0.1908  0.6039  0.0773
 8655SOL    HW127959   6.187   4.338   8.512  0.9201 -1.2669 -0.1177
 8655SOL    HW227960   6.221   4.298   8.654 -0.3081 -0.3642  0.4450
 8656SOL     OW27961   3.939   7.239   5.980  0.3113 -0.2912 -0.1150
 8656SOL    HW127962   4.031   7.251   6.005 -0.0490  0.8584  0.7529
 8656SOL    HW227963   3.895   7.216   6.062 -0.5160  1.2886 -0.0886
 8657SOL     OW27964   2.408   2.776   7.238 -0.4999  0.0835  0.5970
 8657SOL    HW127965   2.479   2.741   7.292  0.0228 -0.0628 -0.1688
 8657SOL    HW227966   2.419   2.733   7.153 -1.6595 -0.1241  0.5366
 8658SOL     OW27967   3.853   8.876   6.365  0.0883  0.2606 -0.6957
 8658SOL    HW127968   3.789   8.885   6.295 -0.1198  2.3457 -0.3148
 8658SOL    HW227969   3.938   8.882   6.321 -0.0234  0.0583 -0.9365
 8659SOL     OW27970   6.639   6.059   1.630 -0.5457  0.0131  0.7438
 8659SOL    HW127971   6.696   6.019   1.695 -0.3059 -2.0093 -0.6077
 8659SOL    HW227972   6.659   6.012   1.548 -2.5671  0.7478 -0.2512
 8660SOL     OW27973   8.616   5.633   7.584  0.4985 -0.3906 -0.1378
 8660SOL    HW127974   8.641   5.543   7.563  0.3551 -0.2080 -1.1625
 8660SOL    HW227975   8.697   5.683   7.578  0.4515 -0.3323 -0.2996
 8661SOL     OW27976   5.584   2.551   2.386  0.0263 -0.0243 -0.7678
 8661SOL    HW127977   5.591   2.536   2.481 -0.6469 -1.3631 -0.9128
 8661SOL    HW227978   5.521   2.623   2.378 -0.5852 -0.4855 -0.2227
 8662SOL     OW27979   0.826   6.936   3.302  0.1988  0.0385  0.8020
 8662SOL    HW127980   0.731   6.938   3.297  0.2138 -1.0666 -0.6226
 8662SOL    HW227981   0.854   7.023   3.273 -0.3528  0.0787  0.3798
 8663SOL     OW27982   5.779   0.377   5.424 -0.1557 -0.2169  0.0904
 8663SOL    HW127983   5.732   0.348   5.503  1.3280  0.9929  1.4937
 8663SOL    HW227984   5.850   0.314   5.414  0.0235 -0.0153  0.0889
 8664SOL     OW27985   3.869   3.513   6.368 -0.5586 -0.1756  0.0381
 8664SOL    HW127986   3.826   3.435   6.333  0.3904 -0.9896  0.6362
 8664SOL    HW227987   3.949   3.521   6.317  0.2908 -0.7298  1.2394
 8665SOL     OW27988   3.226   4.818   5.523  0.4012 -0.7052  0.0303
 8665SOL    HW127989   3.156   4.867   5.567  0.7580  0.7388 -0.9341
 8665SOL    HW227990   3.304   4.871   5.537  0.4058  0.2016 -2.8760
 8666SOL     OW27991   3.294   7.522   5.299 -0.1795  0.2844 -0.9825
 8666SOL    HW127992   3.370   7.484   5.255 -1.4139 -1.8071 -1.4257
 8666SOL    HW227993   3.241   7.447   5.327 -0.6161  1.5667  2.0715
 8667SOL     OW27994   2.801   1.344   4.720  0.2423  0.2603  0.1041
 8667SOL    HW127995   2.849   1.322   4.800 -1.2309  0.9557  1.2430
 8667SOL    HW227996   2.732   1.404   4.750 -0.4805  0.3671 -1.6620
 8668SOL     OW27997   2.388   4.064   0.754 -0.5846  0.7866 -0.1196
 8668SOL    HW127998   2.340   3.991   0.793 -0.3955  0.1933 -0.9590
 8668SOL    HW227999   2.462   4.023   0.710  2.4227  1.8610  3.4269
 8669SOL     OW28000   5.943   7.510   0.218  0.6418 -0.2156  0.2273
 8669SOL    HW128001   5.991   7.456   0.281 -0.0678  0.1565  1.1099
 8669SOL    HW228002   5.897   7.447   0.162  2.7382 -0.6099 -1.1678
 8670SOL     OW28003   7.194   8.744   0.079 -0.2767 -0.3732  0.0732
 8670SOL    HW128004   7.116   8.692   0.095  1.3753 -2.5209  1.8640
 8670SOL    HW228005   7.211   8.787   0.163  0.2945  0.3027 -0.3802
 8671SOL     OW28006   0.654   8.429   7.491  0.4132 -0.2323 -0.1186
 8671SOL    HW128007   0.684   8.486   7.562  0.6051  0.1450 -0.4929
 8671SOL    HW228008   0.690   8.470   7.412 -0.5342 -0.1523 -0.5105
 8672SOL     OW28009   8.251   0.740   1.558  1.0042 -0.5711 -0.3733
 8672SOL    HW128010   8.166   0.704   1.584  1.4641  0.8304  3.6969
 8672SOL    HW228011   8.230   0.828   1.525  0.8295 -0.1268  0.8641
 8673SOL     OW28012   1.430   4.357   2.941 -0.5945  0.6508  0.0455
 8673SOL    HW128013   1.491   4.370   2.869 -0.4804 -1.0289 -0.2128
 8673SOL    HW228014   1.427   4.441   2.987  2.5982  0.5605  0.6313
 8674SOL     OW28015   7.229   0.191   8.143  0.2673  0.1058 -0.1047
 8674SOL    HW128016   7.192   0.167   8.228 -0.4341 -0.0472 -0.4516
 8674SOL    HW228017   7.232   0.109   8.093  0.1735  0.2884 -0.4148
 8675SOL     OW28018   0.185   7.424   7.315 -0.1865  0.6128 -0.3846
 8675SOL    HW128019   0.150   7.416   7.404 -3.0108 -0.1086 -1.4323
 8675SOL    HW228020   0.279   7.414   7.325 -0.5121 -0.6739  2.4038
 8676SOL     OW28021   2.107   0.675   4.749  0.0871 -0.1664 -0.6311
 8676SOL    HW128022   2.105   0.612   4.678 -0.3289  0.8432 -1.5459
 8676SOL    HW228023   2.170   0.640   4.811  0.2829 -1.1813 -1.3898
 8677SOL     OW28024   6.926   7.298   0.779 -0.0802  0.6786  0.3713
 8677SOL    HW128025   6.885   7.257   0.855  0.0002 -1.7653 -0.7828
 8677SOL    HW228026   6.992   7.234   0.750 -1.5000  0.4885 -2.9459
 8678SOL     OW28027   6.711   2.242   1.805  0.0509  0.4168  0.2049
 8678SOL    HW128028   6.672   2.251   1.718  0.2752 -1.5127 -0.1482
 8678SOL    HW228029   6.761   2.160   1.801  1.3283  1.0553  1.6967
 8679SOL     OW28030   7.075   6.040   5.471  0.0542  0.5186  0.2033
 8679SOL    HW128031   7.170   6.029   5.475 -0.2184 -2.1257  0.9953
 8679SOL    HW228032   7.051   6.009   5.383 -0.2929 -1.3858  0.9276
 8680SOL     OW28033   4.457   8.642   7.477  0.0646  0.4817  0.4783
 8680SOL    HW128034   4.440   8.556   7.440  0.3539 -0.2788  2.0388
 8680SOL    HW228035   4.381   8.695   7.452 -0.1068 -0.2185 -0.5089
 8681SOL     OW28036   8.137   6.341   1.000  0.1396  0.9191  0.2910
 8681SOL    HW128037   8.226   6.325   0.969 -0.1435  0.3731 -0.2723
 8681SOL    HW228038   8.131   6.436   1.008  0.4601  1.0215 -0.6181
 8682SOL     OW28039   5.846   0.702   6.966  0.5262  0.1363  0.0517
 8682SOL    HW128040   5.835   0.676   7.058 -0.1111  2.5072  0.7261
 8682SOL    HW228041   5.831   0.622   6.916  1.8995 -1.4772  2.0330
 8683SOL     OW28042   5.334   8.869   5.116 -0.4044  0.8173  0.1216
 8683SOL    HW128043   5.287   8.806   5.062 -1.9542  3.4868 -1.8883
 8683SOL    HW228044   5.402   8.904   5.058  0.6878  0.7682  1.3245
 8684SOL     OW28045   8.152   8.197   4.652 -0.1060 -0.5738  0.2175
 8684SOL    HW128046   8.165   8.253   4.576  1.4174 -1.6858 -0.3981
 8684SOL    HW228047   8.156   8.256   4.727 -2.7064  0.7201 -0.5296
 8685SOL     OW28048   7.489   4.824   3.679  0.3117 -0.0442  0.0413
 8685SOL    HW128049   7.519   4.756   3.619  2.0631  0.5963  0.1474
 8685SOL    HW228050   7.564   4.843   3.734 -0.2031  1.8223  0.1696
 8686SOL     OW28051   0.575   8.367   4.755  0.3418 -0.1039  0.1066
 8686SOL    HW128052   0.558   8.277   4.785 -1.5818  0.8786  2.2780
 8686SOL    HW228053   0.668   8.381   4.772  0.3614 -1.2470  1.0718
 8687SOL     OW28054   1.764   7.891   3.137 -0.3730 -0.5894 -0.4911
 8687SOL    HW128055   1.718   7.822   3.185  1.7757 -1.3863  0.5431
 8687SOL    HW228056   1.773   7.963   3.200 -1.8505  0.3593 -1.2999
 8688SOL     OW28057   7.259   4.518   8.018 -0.2465 -0.8222 -0.4828
 8688SOL    HW128058   7.302   4.459   8.078  0.4118 -2.2054 -2.2348
 8688SOL    HW228059   7.326   4.583   7.996 -1.0138  0.7818  1.5592
 8689SOL     OW28060   5.426   6.238   2.181  0.2359  0.4999 -0.2009
 8689SOL    HW128061   5.433   6.160   2.236  1.9158 -0.8480 -2.1648
 8689SOL    HW228062   5.382   6.208   2.102  1.1457  1.4679 -1.1050
 8690SOL     OW28063   1.134   4.598   5.399  0.3558 -0.8310  0.3432
 8690SOL    HW128064   1.138   4.509   5.362 -0.5556 -0.0542 -1.7273
 8690SOL    HW228065   1.221   4.611   5.437  0.7378 -2.3480  0.0633
 8691SOL     OW28066   4.106   3.470   4.110  0.1101  0.9731 -0.2898
 8691SOL    HW128067   4.134   3.444   4.022  3.0483  0.5770  0.6775
 8691SOL    HW228068   4.150   3.553   4.127  0.3596  0.5741  1.1571
 8692SOL     OW28069   0.778   8.740   2.215  0.1925 -0.4160  0.0147
 8692SOL    HW128070   0.702   8.790   2.244 -0.2257 -1.0003 -0.0572
 8692SOL    HW228071   0.845   8.806   2.199  0.6991 -0.0860  2.9757
 8693SOL     OW28072   0.099   5.553   2.935 -0.4457 -0.6678 -0.7187
 8693SOL    HW128073   0.034   5.622   2.928 -0.5945 -0.6267  0.6920
 8693SOL    HW228074   0.183   5.599   2.943 -0.4031 -0.6880 -1.0271
 8694SOL     OW28075   7.012   8.337   7.602  0.3758 -0.5093 -0.3143
 8694SOL    HW128076   6.984   8.292   7.522 -2.1305 -0.8869  0.6784
 8694SOL    HW228077   6.943   8.319   7.665  0.6916  2.3905  1.0263
 8695SOL     OW28078   7.007   2.804   8.862 -0.3016 -1.2001 -0.4476
 8695SOL    HW128079   7.023   2.753   8.783 -0.9581 -0.5307 -1.0336
 8695SOL    HW228080   7.041   2.891   8.842  0.2684 -1.2403  0.3155
 8696SOL     OW28081   3.341   3.412   1.512  0.0296  0.2966  0.3003
 8696SOL    HW128082   3.257   3.394   1.470 -1.2855  1.6769  2.1965
 8696SOL    HW228083   3.337   3.366   1.596  1.2822  0.1945  0.3272
 8697SOL     OW28084   6.641   6.024   5.876 -0.3409 -0.0511 -0.2609
 8697SOL    HW128085   6.581   5.952   5.857 -1.3283  0.3942  1.0302
 8697SOL    HW228086   6.710   6.015   5.810 -1.8759 -0.5063 -1.9149
 8698SOL     OW28087   0.527   4.965   8.527 -0.7274  0.0666 -0.9134
 8698SOL    HW128088   0.507   4.972   8.621  2.1900  1.4403 -0.2530
 8698SOL    HW228089   0.555   4.875   8.515  1.5385  0.5086  0.2926
 8699SOL     OW28090   0.105   3.087   2.567 -0.6682 -0.3952  0.1854
 8699SOL    HW128091   0.026   3.126   2.605  0.9181  2.0429  1.3116
 8699SOL    HW228092   0.162   3.071   2.642  1.5785  2.1532 -0.7762
 8700SOL     OW28093   5.687   3.966   8.148 -0.5919 -0.1980  0.0074
 8700SOL    HW128094   5.748   4.034   8.176 -0.2966  1.0832 -3.3336
 8700SOL    HW228095   5.740   3.886   8.145 -0.0120  0.1632  0.5086
 8701SOL     OW28096   8.574   7.550   4.464 -0.2459  0.5440 -0.0381
 8701SOL    HW128097   8.645   7.524   4.523 -2.1399  0.9210  2.5736
 8701SOL    HW228098   8.594   7.641   4.441  0.1251  0.6415  0.6568
 8702SOL     OW28099   7.526   0.931   5.823 -0.3836 -0.2120  0.3543
 8702SOL    HW128100   7.447   0.974   5.789 -1.1099 -1.7272 -0.0025
 8702SOL    HW228101   7.591   0.942   5.753 -1.3512 -1.8361 -0.8986
 8703SOL     OW28102   0.751   8.014   8.641  0.4279 -0.1313 -0.1461
 8703SOL    HW128103   0.794   8.097   8.623  0.9103  0.1877  2.1651
 8703SOL    HW228104   0.803   7.949   8.593 -0.2210  0.8702 -2.3505
 8704SOL     OW28105   7.087   3.116   6.271 -0.4979  0.0412 -0.5903
 8704SOL    HW128106   7.000   3.090   6.238 -1.3140  0.8339  0.8485
 8704SOL    HW228107   7.075   3.126   6.365  1.0969  0.4874 -0.4047
 8705SOL     OW28108   1.966   1.147   3.855  0.6643 -0.5335 -0.2005
 8705SOL    HW128109   2.000   1.088   3.788  1.8179 -1.5112  1.1621
 8705SOL    HW228110   1.889   1.102   3.889  1.1540 -0.9770  0.3687
 8706SOL     OW28111   4.791   2.072   0.515 -0.1756  0.0065  0.0554
 8706SOL    HW128112   4.766   2.016   0.442 -3.0833  0.3872  0.6244
 8706SOL    HW228113   4.833   2.013   0.578  0.3988 -0.7297 -0.9887
 8707SOL     OW28114   6.564   7.500   5.710 -0.3048  0.1650  0.1077
 8707SOL    HW128115   6.646   7.542   5.687 -1.2604  1.3929 -1.2554
 8707SOL    HW228116   6.497   7.552   5.666 -1.7038 -1.7311 -0.1294
 8708SOL     OW28117   6.016   8.873   0.558  0.1940  0.6705  0.1453
 8708SOL    HW128118   5.962   8.807   0.601  0.7165  0.9333  1.2456
 8708SOL    HW228119   5.954   8.937   0.524 -0.2667  0.0802 -0.1368
 8709SOL     OW28120   7.281   4.059   2.722  1.2246  0.1014  0.0887
 8709SOL    HW128121   7.346   4.114   2.766  2.9709 -3.9878  3.3469
 8709SOL    HW228122   7.331   4.008   2.659  0.8843 -1.5986  1.1279
 8710SOL     OW28123   7.065   4.389   8.341  0.2074 -0.1164  0.0845
 8710SOL    HW128124   7.096   4.327   8.406  1.0355 -1.4630 -1.5024
 8710SOL    HW228125   7.142   4.408   8.287 -0.5500  0.5358 -0.8055
 8711SOL     OW28126   7.359   1.450   7.420  0.5027 -0.5960  0.1944
 8711SOL    HW128127   7.271   1.420   7.397 -0.5830  1.7188  1.0323
 8711SOL    HW228128   7.382   1.401   7.499  0.3060 -1.7275 -0.4282
 8712SOL     OW28129   6.491   1.717   1.797  0.0099  0.2853  0.4598
 8712SOL    HW128130   6.489   1.633   1.842 -1.0324  0.0922  0.0974
 8712SOL    HW228131   6.435   1.774   1.850  0.4124  0.6500  0.5017
 8713SOL     OW28132   2.566   5.393   3.663  0.4533  0.2647  0.8322
 8713SOL    HW128133   2.578   5.299   3.673 -0.1021  0.2609  1.5900
 8713SOL    HW228134   2.635   5.420   3.603 -0.0020 -0.7830 -0.1966
 8714SOL     OW28135   7.523   0.528   6.114  0.2769  0.4790 -0.3702
 8714SOL    HW128136   7.559   0.582   6.044 -0.2755  0.7384 -0.4627
 8714SOL    HW228137   7.599   0.495   6.161  0.6524  0.4009 -1.0177
 8715SOL     OW28138   7.775   1.714   7.165 -0.2590 -0.2431 -0.4039
 8715SOL    HW128139   7.744   1.722   7.255 -0.3813  1.0196 -0.5328
 8715SOL    HW228140   7.845   1.780   7.158  0.7200 -1.2928 -0.8412
 8716SOL     OW28141   8.882   6.257   5.616  0.1923 -0.3038 -0.1845
 8716SOL    HW128142   8.833   6.306   5.682  1.3168  1.1718 -0.3881
 8716SOL    HW228143   8.821   6.247   5.542 -0.2780  0.1814  0.1347
 8717SOL     OW28144   5.401   7.688   0.316 -0.5554 -0.1252  0.7310
 8717SOL    HW128145   5.326   7.747   0.309 -0.8095 -0.5769 -0.4796
 8717SOL    HW228146   5.468   7.741   0.361 -0.9129  0.9565  0.0434
 8718SOL     OW28147   5.548   7.647   1.343  0.3544  0.5538  1.0323
 8718SOL    HW128148   5.528   7.716   1.280  0.7141  0.4156  0.7653
 8718SOL    HW228149   5.462   7.613   1.370  0.1542 -2.1524 -2.4033
 8719SOL     OW28150   2.792   1.432   2.965 -0.3109  0.4538  0.5357
 8719SOL    HW128151   2.728   1.448   2.896 -2.3909  0.5568  2.3905
 8719SOL    HW228152   2.821   1.342   2.950  0.4356  0.9523 -1.3073
 8720SOL     OW28153   1.158   2.392   1.158  0.2197  0.3390  0.5691
 8720SOL    HW128154   1.106   2.468   1.184  0.6721  0.6392  0.5942
 8720SOL    HW228155   1.093   2.322   1.148 -0.3023  0.9192 -0.2377
 8721SOL     OW28156   5.980   4.756   8.454  0.4440 -0.1224  0.1224
 8721SOL    HW128157   5.911   4.690   8.448  0.8991 -0.6683  0.7082
 8721SOL    HW228158   6.059   4.710   8.428  0.9101 -0.0664  1.3438
 8722SOL     OW28159   7.090   4.444   5.878  0.0400 -0.0775 -0.1443
 8722SOL    HW128160   7.132   4.375   5.827 -0.0169 -0.1412 -0.1040
 8722SOL    HW228161   7.098   4.416   5.969  2.5427  1.3021  0.1454
 8723SOL     OW28162   7.243   1.285   1.840 -0.0367 -0.2979 -0.1852
 8723SOL    HW128163   7.159   1.292   1.795 -0.1614  0.6618  0.1718
 8723SOL    HW228164   7.304   1.252   1.773 -0.4475  0.0936 -0.7562
 8724SOL     OW28165   3.357   4.823   6.410  0.1292  0.2392 -0.3838
 8724SOL    HW128166   3.267   4.847   6.434  0.0176 -0.0690 -0.4857
 8724SOL    HW228167   3.395   4.788   6.491 -0.4724 -1.4653 -0.7858
 8725SOL     OW28168   4.646   7.189   4.075 -0.4236  0.0731 -0.4700
 8725SOL    HW128169   4.707   7.136   4.126 -0.6708 -0.0608 -0.3132
 8725SOL    HW228170   4.630   7.267   4.129 -0.7611 -0.1140 -0.2983
 8726SOL     OW28171   3.785   3.122   8.834  0.0415 -0.5009 -0.1074
 8726SOL    HW128172   3.880   3.118   8.824  0.3589  1.1410  1.5531
 8726SOL    HW228173   3.759   3.198   8.782 -0.2041 -0.3269  0.2653
 8727SOL     OW28174   4.798   4.216   7.255 -0.2506  0.0521  0.4469
 8727SOL    HW128175   4.862   4.187   7.320 -0.8706  0.7527  1.3889
 8727SOL    HW228176   4.797   4.145   7.190  1.3201 -0.0709  0.5046
 8728SOL     OW28177   7.335   0.507   7.406 -0.5450 -0.7252  0.4878
 8728SOL    HW128178   7.424   0.543   7.407 -0.6808 -0.3819  0.5234
 8728SOL    HW228179   7.327   0.466   7.320 -0.0901 -1.4397  0.7761
 8729SOL     OW28180   2.852   2.512   5.051  0.1290 -0.1973 -0.6315
 8729SOL    HW128181   2.912   2.440   5.035 -0.4801 -0.7555 -0.4361
 8729SOL    HW228182   2.868   2.537   5.142 -1.7214 -2.0751  0.2834
 8730SOL     OW28183   2.109   1.790   6.201 -0.2259  0.0303  0.2966
 8730SOL    HW128184   2.086   1.719   6.141 -1.1144 -1.0067  1.7827
 8730SOL    HW228185   2.029   1.804   6.253  1.3787 -1.4190  3.4305
 8731SOL     OW28186   6.069   2.667   8.737 -0.2083  0.3037 -0.0733
 8731SOL    HW128187   6.045   2.743   8.791 -2.3657 -0.3507 -0.0187
 8731SOL    HW228188   6.054   2.592   8.795 -1.2291 -0.3319 -1.1346
 8732SOL     OW28189   0.998   7.183   4.708 -0.4339 -0.2594  0.1454
 8732SOL    HW128190   1.068   7.191   4.773 -0.4868  0.2954  0.1411
 8732SOL    HW228191   0.994   7.090   4.688  0.1996 -0.3150  0.2631
 8733SOL     OW28192   5.802   0.570   3.301  0.2043  0.8182  0.4006
 8733SOL    HW128193   5.896   0.550   3.293 -0.1470 -1.1343  0.7319
 8733SOL    HW228194   5.759   0.485   3.298 -1.8685  1.8045 -2.8737
 8734SOL     OW28195   1.655   8.198   1.463  0.2285  0.3748  0.7506
 8734SOL    HW128196   1.634   8.106   1.442 -0.5463  0.6294  0.3614
 8734SOL    HW228197   1.630   8.207   1.555 -1.8927  0.7731  0.2047
 8735SOL     OW28198   8.374   6.512   3.675 -0.0408  0.1887 -0.4075
 8735SOL    HW128199   8.299   6.498   3.617 -0.4521 -2.2886  0.6001
 8735SOL    HW228200   8.335   6.547   3.755  0.1501  0.7978 -0.5772
 8736SOL     OW28201   7.798   0.439   5.870 -0.2480  0.7557  0.4382
 8736SOL    HW128202   7.717   0.387   5.874  0.0451  0.3106  0.6043
 8736SOL    HW228203   7.824   0.450   5.962  0.3080  0.2152  0.3543
 8737SOL     OW28204   2.128   0.628   5.427  0.2961 -0.0801  0.2139
 8737SOL    HW128205   2.190   0.613   5.499  1.3517  0.0767 -0.6316
 8737SOL    HW228206   2.104   0.540   5.398 -0.3317 -0.1477  0.9064
 8738SOL     OW28207   6.651   4.452   6.007 -0.0629  0.2749 -0.6630
 8738SOL    HW128208   6.729   4.507   6.019  1.3786 -1.5131 -1.3645
 8738SOL    HW228209   6.601   4.463   6.088  1.9150 -0.0409  0.6750
 8739SOL     OW28210   4.094   8.087   4.901 -0.1483  0.3249 -0.8165
 8739SOL    HW128211   4.132   8.028   4.966 -3.0350 -1.8223 -0.8360
 8739SOL    HW228212   4.012   8.117   4.942 -0.0226  2.2899 -1.8769
 8740SOL     OW28213   7.249   2.266   6.466 -0.1265  0.2048  0.2538
 8740SOL    HW128214   7.308   2.231   6.399 -0.8456 -0.8645  0.1483
 8740SOL    HW228215   7.170   2.212   6.459  0.0301 -0.3937  2.3893
 8741SOL     OW28216   4.576   0.520   0.484 -0.4709  0.5961  0.0588
 8741SOL    HW128217   4.635   0.506   0.558 -0.5959 -1.9877 -0.2156
 8741SOL    HW228218   4.613   0.594   0.437  0.3869  1.4307  1.9393
 8742SOL     OW28219   8.002   2.863   3.707  0.1871 -0.4493 -0.3643
 8742SOL    HW128220   7.986   2.769   3.722 -0.2753 -0.0511  2.0683
 8742SOL    HW228221   7.923   2.893   3.661 -2.0983 -0.3979  3.1630
 8743SOL     OW28222   0.899   4.868   2.202  0.2994  0.1802  0.1356
 8743SOL    HW128223   0.943   4.948   2.173  0.1261  0.8472  1.5784
 8743SOL    HW228224   0.966   4.818   2.248 -0.0007  0.3371  0.7576
 8744SOL     OW28225   2.471   7.224   3.718 -0.1815 -0.5051 -0.5995
 8744SOL    HW128226   2.423   7.159   3.667  0.6558 -1.2376 -0.4754
 8744SOL    HW228227   2.539   7.256   3.659 -0.8912  0.6509 -0.8291
 8745SOL     OW28228   3.933   2.550   0.683  0.4667 -0.1046  0.0366
 8745SOL    HW128229   3.920   2.503   0.766 -1.1626  0.8106  0.3365
 8745SOL    HW228230   3.924   2.483   0.616  0.9194 -0.7041  0.5619
 8746SOL     OW28231   4.888   6.913   7.643 -0.7454 -0.1670  0.3899
 8746SOL    HW128232   4.954   6.844   7.637  0.4783  0.8637  1.2032
 8746SOL    HW228233   4.805   6.867   7.654  0.0052 -1.5084  0.6508
 8747SOL     OW28234   3.886   4.258   3.557 -0.6055  0.6170 -0.0282
 8747SOL    HW128235   3.960   4.309   3.524 -0.8619  0.7813 -0.3564
 8747SOL    HW228236   3.892   4.266   3.652 -0.0396  0.3991 -0.0416
 8748SOL     OW28237   8.673   8.573   4.692  0.0368 -0.2391  0.3950
 8748SOL    HW128238   8.666   8.518   4.769 -2.1988 -1.0503 -0.3081
 8748SOL    HW228239   8.724   8.522   4.629 -2.0878 -1.6495 -0.2815
 8749SOL     OW28240   2.495   4.674   7.523  0.3297  0.2699 -0.1270
 8749SOL    HW128241   2.562   4.683   7.455 -1.7426 -0.3414 -2.3792
 8749SOL    HW228242   2.412   4.688   7.477 -1.2074 -0.5068  2.2428
 8750SOL     OW28243   0.984   6.779   8.456  0.0816  0.3594  0.0125
 8750SOL    HW128244   0.918   6.755   8.391  0.7930 -2.6142  0.2590
 8750SOL    HW228245   1.043   6.838   8.408 -1.5927  1.4792 -0.7806
 8751SOL     OW28246   4.284   5.491   7.151 -0.1948 -0.4425 -0.0978
 8751SOL    HW128247   4.262   5.583   7.136 -0.6190 -0.5568 -0.2033
 8751SOL    HW228248   4.375   5.492   7.178 -0.6978  0.1907  1.7187
 8752SOL     OW28249   7.302   7.765   1.008  0.0511  0.2503  0.4720
 8752SOL    HW128250   7.261   7.687   0.970 -0.3116 -0.2255  1.7886
 8752SOL    HW228251   7.274   7.836   0.951  0.5875 -0.5960 -0.9049
 8753SOL     OW28252   2.987   6.319   4.293 -0.2658  0.3447 -0.0655
 8753SOL    HW128253   2.902   6.312   4.249 -0.5604 -0.6900  0.6311
 8753SOL    HW228254   2.967   6.365   4.375  0.1559  1.6086 -0.6392
 8754SOL     OW28255   6.915   4.003   7.749 -0.0045 -0.3141 -0.3440
 8754SOL    HW128256   6.896   3.927   7.695 -1.3511 -0.4782  0.3143
 8754SOL    HW228257   6.933   4.074   7.687  1.1993 -1.1305 -0.9601
 8755SOL     OW28258   7.535   1.035   8.237 -0.1332  0.0103 -0.0638
 8755SOL    HW128259   7.567   0.959   8.189  0.1307  0.4373 -0.5840
 8755SOL    HW228260   7.440   1.028   8.232 -0.1233 -0.7577  0.6648
 8756SOL     OW28261   5.163   7.312   1.626 -0.0493 -0.1613  0.3700
 8756SOL    HW128262   5.135   7.222   1.643  1.7698 -1.1005 -1.2436
 8756SOL    HW228263   5.167   7.318   1.531 -0.2726  1.6952  0.4491
 8757SOL     OW28264   8.680   5.590   8.606  0.3522 -0.1610  0.7710
 8757SOL    HW128265   8.630   5.533   8.547  0.7335  1.2088 -0.9797
 8757SOL    HW228266   8.675   5.547   8.691  0.0487 -2.4264 -0.3100
 8758SOL     OW28267   8.566   5.893   8.739  0.3162  0.4827 -0.0845
 8758SOL    HW128268   8.656   5.924   8.746  0.2717  0.6091 -0.0612
 8758SOL    HW228269   8.574   5.801   8.713  0.4377  0.7783 -1.1470
 8759SOL     OW28270   8.402   4.312   4.060 -0.3969  0.6363  0.0450
 8759SOL    HW128271   8.424   4.284   4.149 -0.0524  0.8075  0.0159
 8759SOL    HW228272   8.461   4.262   4.004 -0.8681  0.2596 -0.1112
 8760SOL     OW28273   4.182   2.484   0.225  0.0951  0.3072 -0.8736
 8760SOL    HW128274   4.261   2.452   0.181  0.9869  2.1041 -0.6510
 8760SOL    HW228275   4.214   2.548   0.289 -1.4217 -0.1093  0.3689
 8761SOL     OW28276   0.261   3.513   5.597  0.4226  0.0864  0.0077
 8761SOL    HW128277   0.268   3.421   5.573 -2.4284 -0.3742  0.6260
 8761SOL    HW228278   0.287   3.560   5.517  0.8092 -1.2449 -0.6823
 8762SOL     OW28279   3.953   7.667   2.507  0.4425  0.0496 -0.1931
 8762SOL    HW128280   3.937   7.749   2.461  1.8439 -1.1722 -3.2018
 8762SOL    HW228281   4.035   7.682   2.554  0.4692  0.5162 -0.3788
 8763SOL     OW28282   7.315   1.552   2.180 -0.4387 -0.3000 -0.0255
 8763SOL    HW128283   7.254   1.489   2.140  0.3621 -1.6148  0.7494
 8763SOL    HW228284   7.324   1.522   2.270  1.0116  0.1260 -0.0115
 8764SOL     OW28285   5.110   3.766   6.732 -0.3702 -0.3127  0.1093
 8764SOL    HW128286   5.205   3.776   6.721 -0.6015  1.0309 -0.9970
 8764SOL    HW228287   5.092   3.675   6.709  0.5442 -0.3260 -0.6058
 8765SOL     OW28288   4.456   7.579   6.792  0.3735  0.0831  0.5958
 8765SOL    HW128289   4.364   7.576   6.766  0.9578  0.7167 -1.7170
 8765SOL    HW228290   4.463   7.657   6.847 -0.0534  1.4226 -1.1696
 8766SOL     OW28291   3.848   1.148   3.043  0.0360  0.4291 -0.0470
 8766SOL    HW128292   3.844   1.182   2.954 -0.3370  0.4396 -0.0267
 8766SOL    HW228293   3.766   1.175   3.083 -1.4550 -2.5835 -0.7796
 8767SOL     OW28294   8.484   2.899   3.452 -0.1681  0.1813 -0.3673
 8767SOL    HW128295   8.389   2.912   3.451 -0.1371  0.5854  0.7982
 8767SOL    HW228296   8.514   2.947   3.529  0.9545 -0.1991 -0.5504
 8768SOL     OW28297   4.335   3.791   4.811 -0.8948  0.2717  0.6534
 8768SOL    HW128298   4.421   3.774   4.773 -0.5920  0.9828  0.9978
 8768SOL    HW228299   4.295   3.705   4.820 -0.2147 -0.0679  0.4971
 8769SOL     OW28300   4.005   1.813   8.212  0.1634 -0.2593 -0.2721
 8769SOL    HW128301   3.930   1.756   8.200  0.3360 -0.1535 -2.0691
 8769SOL    HW228302   4.064   1.763   8.269  0.8709 -2.5051 -2.7505
 8770SOL     OW28303   0.502   7.845   3.075 -0.4081  0.3389 -0.0379
 8770SOL    HW128304   0.517   7.803   3.159  1.3724 -1.1017 -1.0137
 8770SOL    HW228305   0.577   7.905   3.064 -1.7124  2.1216  0.2945
 8771SOL     OW28306   3.092   4.353   3.976 -0.2416  0.2380 -0.1938
 8771SOL    HW128307   3.098   4.259   3.956 -1.8888  0.5958 -2.9833
 8771SOL    HW228308   3.005   4.364   4.014 -0.3053  0.7096 -0.4693
 8772SOL     OW28309   4.869   4.148   1.789  0.0529  0.0868  0.5268
 8772SOL    HW128310   4.935   4.084   1.816 -0.5574 -1.7876 -2.0257
 8772SOL    HW228311   4.817   4.103   1.722 -1.6717  2.6289 -0.0182
 8773SOL     OW28312   1.548   2.116   5.697 -0.6740 -0.0887 -0.3769
 8773SOL    HW128313   1.556   2.059   5.620  0.3043  1.0378 -1.1515
 8773SOL    HW228314   1.457   2.147   5.693 -0.9717 -0.9312 -0.4077
 8774SOL     OW28315   5.579   8.731   6.572  0.3198 -0.1681  0.3211
 8774SOL    HW128316   5.520   8.759   6.641  0.4795 -1.3264  0.9584
 8774SOL    HW228317   5.659   8.782   6.586 -0.1460  0.6507  0.0812
 8775SOL     OW28318   8.511   4.177   0.156 -0.0939  0.1019 -0.3409
 8775SOL    HW128319   8.426   4.175   0.200 -1.3272  0.1531 -2.6033
 8775SOL    HW228320   8.556   4.252   0.197 -0.9798 -0.0972  1.0925
 8776SOL     OW28321   6.109   6.973   2.984 -0.0460 -0.3884  0.0237
 8776SOL    HW128322   6.111   7.055   2.935  0.4390  0.9629  2.1971
 8776SOL    HW228323   6.082   6.998   3.072 -0.4915 -2.6652  0.5937
 8777SOL     OW28324   5.716   6.329   2.400  0.3096  0.0246  0.4127
 8777SOL    HW128325   5.783   6.278   2.446  1.9663  1.0320 -0.7761
 8777SOL    HW228326   5.696   6.277   2.322  0.5419  0.2547  0.1993
 8778SOL     OW28327   6.627   6.983   8.254 -0.5779  0.1321 -0.0374
 8778SOL    HW128328   6.541   7.024   8.257 -0.2259  0.8400  0.6495
 8778SOL    HW228329   6.634   6.934   8.336 -0.1378  0.4627  0.1239
 8779SOL     OW28330   8.710   3.918   0.856 -0.3960  0.2634  0.3375
 8779SOL    HW128331   8.668   3.882   0.934  1.0363 -0.1574  0.9402
 8779SOL    HW228332   8.652   3.892   0.784 -0.6448 -1.1973  1.0200
 8780SOL     OW28333   4.931   3.194   4.486  0.4486  0.3370 -0.7147
 8780SOL    HW128334   4.865   3.161   4.425  0.7398 -1.7410  0.0118
 8780SOL    HW228335   4.889   3.269   4.529 -1.9548 -1.5707  0.5430
 8781SOL     OW28336   6.394   7.671   6.601 -0.8920 -0.2025 -0.2591
 8781SOL    HW128337   6.304   7.680   6.572 -0.9245  1.0085  0.1578
 8781SOL    HW228338   6.389   7.609   6.674 -1.0054 -2.1017 -1.8081
 8782SOL     OW28339   7.171   8.824   6.079 -0.1694  0.1662  0.5129
 8782SOL    HW128340   7.241   8.767   6.109 -0.2423 -0.2217 -0.0521
 8782SOL    HW228341   7.101   8.810   6.143 -0.0290 -0.0471  0.6222
 8783SOL     OW28342   8.688   5.755   0.838 -0.3000 -0.5711  0.1504
 8783SOL    HW128343   8.692   5.790   0.927 -0.1700  1.2168 -0.5062
 8783SOL    HW228344   8.721   5.827   0.783  1.3679 -2.2563 -1.1950
 8784SOL     OW28345   2.809   5.644   0.462 -0.2048  0.1804  0.4407
 8784SOL    HW128346   2.888   5.665   0.413 -1.8299  1.1667 -1.9655
 8784SOL    HW228347   2.818   5.551   0.484  0.7492 -0.2757 -1.5920
 8785SOL     OW28348   7.110   8.011   8.743 -0.2030 -0.0765 -0.0572
 8785SOL    HW128349   7.050   7.936   8.742 -1.4822  0.8377 -2.7720
 8785SOL    HW228350   7.081   8.063   8.818 -1.8532 -0.4292 -0.3970
 8786SOL     OW28351   8.427   4.370   6.123 -0.6191 -0.4330  0.5341
 8786SOL    HW128352   8.343   4.398   6.160  0.0301  0.3079  1.5012
 8786SOL    HW228353   8.491   4.431   6.159  0.2234 -0.3721 -0.9539
 8787SOL     OW28354   2.831   0.562   0.523 -0.6226  0.1078  0.0801
 8787SOL    HW128355   2.828   0.591   0.614  0.8384 -2.1104  0.9125
 8787SOL    HW228356   2.911   0.509   0.518 -2.2174 -2.2797 -1.7280
 8788SOL     OW28357   5.915   2.628   3.766  0.4822  0.8992  0.6346
 8788SOL    HW128358   5.845   2.687   3.793  1.0861  1.1674  1.6818
 8788SOL    HW228359   5.933   2.652   3.675  0.7562  2.3920  1.0543
 8789SOL     OW28360   3.458   2.782   6.180 -0.3197 -0.1061 -0.0403
 8789SOL    HW128361   3.419   2.752   6.263 -1.8563  0.2656 -0.5926
 8789SOL    HW228362   3.400   2.747   6.112 -1.2525  2.6278 -0.7801
 8790SOL     OW28363   1.131   8.258   6.414 -0.4010 -0.0714  0.3471
 8790SOL    HW128364   1.191   8.225   6.348 -0.6695  1.7267 -0.8382
 8790SOL    HW228365   1.081   8.326   6.370 -1.8825 -0.0976  1.8916
 8791SOL     OW28366   7.350   8.675   7.415 -0.1981  0.6253 -0.1717
 8791SOL    HW128367   7.273   8.664   7.469  0.0005  1.0835  0.2091
 8791SOL    HW228368   7.329   8.630   7.333 -0.0941 -1.0347  0.6547
 8792SOL     OW28369   3.643   2.921   6.392 -0.2916 -0.5349 -0.1716
 8792SOL    HW128370   3.639   2.868   6.313  2.2408 -1.7275  0.3851
 8792SOL    HW228371   3.735   2.915   6.421  0.0722  3.7322  0.2692
 8793SOL     OW28372   2.081   5.930   4.352 -0.4608 -0.4579  0.3851
 8793SOL    HW128373   2.173   5.905   4.355 -0.3100 -0.0615 -0.5938
 8793SOL    HW228374   2.056   5.942   4.443  0.2365 -1.3666  0.7053
 8794SOL     OW28375   6.075   8.527   1.242 -0.1525 -0.0801  0.6075
 8794SOL    HW128376   6.165   8.558   1.246  0.4219 -1.2037 -1.7373
 8794SOL    HW228377   6.034   8.581   1.175 -0.6249 -0.9251  0.2030
 8795SOL     OW28378   3.191   1.866   8.483 -0.0851 -0.1145  0.0266
 8795SOL    HW128379   3.261   1.852   8.419 -1.2827  0.9724 -1.6059
 8795SOL    HW228380   3.187   1.961   8.494 -1.9248 -0.0672 -0.6873
 8796SOL     OW28381   5.734   0.414   7.589 -0.1486  0.0596  0.0104
 8796SOL    HW128382   5.662   0.476   7.583 -0.5153 -0.4281 -0.8726
 8796SOL    HW228383   5.694   0.329   7.571  0.7752 -0.1226 -1.3362
 8797SOL     OW28384   5.943   7.843   0.432 -0.2433 -0.1249 -0.1517
 8797SOL    HW128385   5.903   7.803   0.509  1.8007 -1.4744  0.2961
 8797SOL    HW228386   5.871   7.860   0.372 -1.5902 -1.2819  1.0934
 8798SOL     OW28387   3.365   7.942   3.077  0.5001  0.2417  0.2574
 8798SOL    HW128388   3.387   7.858   3.038 -0.9167 -0.8254  1.6236
 8798SOL    HW228389   3.301   7.980   3.017  0.8412  0.1666 -0.1580
 8799SOL     OW28390   4.043   5.940   1.882  0.1524 -0.6148  0.3704
 8799SOL    HW128391   4.010   5.941   1.972 -0.1083 -1.4889  0.3007
 8799SOL    HW228392   4.045   6.032   1.855  0.1346 -0.3554  1.2302
 8800SOL     OW28393   7.343   8.167   2.349  0.2269  0.3294  0.2551
 8800SOL    HW128394   7.436   8.151   2.335  0.5224  1.6770  0.4945
 8800SOL    HW228395   7.328   8.143   2.440  0.4933  0.6718  0.3950
 8801SOL     OW28396   4.435   0.524   8.100  0.6978 -0.1033  0.2527
 8801SOL    HW128397   4.396   0.446   8.140  0.8623  0.2472  1.1360
 8801SOL    HW228398   4.510   0.491   8.050  1.6802 -0.3917  1.8381
 8802SOL     OW28399   3.667   6.640   3.014  0.3458 -0.9226  0.3402
 8802SOL    HW128400   3.750   6.672   2.978 -0.5301  1.2079  0.0666
 8802SOL    HW228401   3.683   6.634   3.108  0.7850 -0.4213  0.3048
 8803SOL     OW28402   1.087   0.553   0.939  0.0987  0.5572 -0.1162
 8803SOL    HW128403   1.112   0.608   1.013  1.4868  0.6477 -0.6192
 8803SOL    HW228404   1.170   0.521   0.903 -0.6563 -1.8211  0.1030
 8804SOL     OW28405   0.962   5.697   8.180  0.7804  0.0073  0.3005
 8804SOL    HW128406   0.925   5.619   8.222 -0.4411  0.1629 -0.4473
 8804SOL    HW228407   0.939   5.769   8.240  2.0513 -0.1975  1.0740
 8805SOL     OW28408   5.774   6.690   3.603 -0.0772  0.0364 -0.5197
 8805SOL    HW128409   5.774   6.740   3.685  1.2457 -0.0258 -0.4579
 8805SOL    HW228410   5.827   6.744   3.543 -1.6839  0.4749 -1.6017
 8806SOL     OW28411   0.498   7.170   4.040  0.1324  0.1098 -0.2974
 8806SOL    HW128412   0.576   7.162   3.986 -0.5477 -1.3353 -1.1140
 8806SOL    HW228413   0.518   7.117   4.118 -0.1983 -0.6715 -0.7308
 8807SOL     OW28414   3.054   7.758   7.771 -0.3059  0.4277 -0.3015
 8807SOL    HW128415   2.995   7.685   7.755  0.4016 -0.4335  0.7641
 8807SOL    HW228416   3.088   7.782   7.685  0.1587 -1.1376 -0.5786
 8808SOL     OW28417   5.359   2.793   1.815  0.0372  0.1630  0.1537
 8808SOL    HW128418   5.390   2.882   1.803  1.0970 -0.0151  1.3457
 8808SOL    HW228419   5.392   2.745   1.739  1.4543  0.3029  0.6639
 8809SOL     OW28420   5.402   7.097   1.810  0.1822  0.0795  0.3901
 8809SOL    HW128421   5.464   7.024   1.816 -0.2584 -0.2094  2.1000
 8809SOL    HW228422   5.332   7.064   1.753  1.5290  0.4074 -1.5499
 8810SOL     OW28423   6.014   0.468   5.636 -0.3650 -0.0911 -0.0862
 8810SOL    HW128424   5.981   0.428   5.555 -0.6495 -0.5612  0.2525
 8810SOL    HW228425   5.938   0.474   5.693 -0.2255  0.5134  0.0441
 8811SOL     OW28426   4.880   8.675   3.388  0.5558  0.6411 -0.1854
 8811SOL    HW128427   4.836   8.752   3.424  1.1651  2.3606 -2.8380
 8811SOL    HW228428   4.973   8.698   3.391  0.6648  0.6009 -2.1233
 8812SOL     OW28429   5.071   5.456   8.821  0.2225  0.0911  0.0915
 8812SOL    HW128430   5.056   5.412   8.738  0.3143  1.5615 -0.7408
 8812SOL    HW228431   5.165   5.448   8.836  0.4472  1.0475 -0.6944
 8813SOL     OW28432   6.385   3.510   3.754 -0.2186  0.4332  0.1089
 8813SOL    HW128433   6.296   3.541   3.774 -0.2427  0.1736  0.4044
 8813SOL    HW228434   6.416   3.571   3.687 -1.7048 -1.1970 -2.2032
 8814SOL     OW28435   5.354   8.372   5.323  0.0318  0.6644  0.0506
 8814SOL    HW128436   5.280   8.352   5.267 -0.2268  1.2661  0.1731
 8814SOL    HW228437   5.315   8.395   5.408  0.4412 -1.1021  0.7678
 8815SOL     OW28438   1.473   4.120   0.699  0.2259  0.4948  0.2672
 8815SOL    HW128439   1.395   4.174   0.715 -0.6062 -0.4949 -0.3419
 8815SOL    HW228440   1.546   4.179   0.717 -0.6535  1.4764  0.7700
 8816SOL     OW28441   6.211   6.071   2.984 -0.0645  0.2329  0.4481
 8816SOL    HW128442   6.264   6.042   3.058  0.8255  0.1422 -0.2103
 8816SOL    HW228443   6.150   6.135   3.021 -1.2031 -1.4736  1.6880
 8817SOL     OW28444   3.352   0.943   0.686 -0.6406 -0.1596  0.4602
 8817SOL    HW128445   3.384   1.006   0.621  0.7617 -0.4280  0.8416
 8817SOL    HW228446   3.261   0.929   0.664 -0.9308  1.8205  0.1998
 8818SOL     OW28447   3.291   4.424   7.105 -0.0494  0.2249  0.6463
 8818SOL    HW128448   3.243   4.507   7.105  1.7449  1.3292  0.0484
 8818SOL    HW228449   3.323   4.415   7.194  0.1688  0.4340  0.5897
 8819SOL     OW28450   0.364   1.428   1.457 -0.1447 -0.1729  0.5785
 8819SOL    HW128451   0.275   1.428   1.422 -0.3440  3.0212  0.7521
 8819SOL    HW228452   0.420   1.410   1.382 -0.8534 -1.3519  0.3018
 8820SOL     OW28453   1.987   7.750   8.086  0.6130 -0.0304 -0.5126
 8820SOL    HW128454   2.079   7.758   8.112  1.5885 -1.8046 -2.9831
 8820SOL    HW228455   1.978   7.807   8.010 -0.5749  0.7257  0.1717
 8821SOL     OW28456   6.570   8.657   3.953  0.5623  0.6463 -0.4396
 8821SOL    HW128457   6.556   8.687   4.043 -0.3021  1.9525 -0.9783
 8821SOL    HW228458   6.641   8.712   3.920 -0.5554  1.6620 -1.2116
 8822SOL     OW28459   3.172   4.033   7.375 -0.3920 -0.6254 -0.0881
 8822SOL    HW128460   3.090   4.019   7.422 -0.0720  1.4795  1.2436
 8822SOL    HW228461   3.145   4.051   7.285 -1.2631 -1.4420 -0.0042
 8823SOL     OW28462   7.694   5.077   0.534  0.4134  0.5611  0.1152
 8823SOL    HW128463   7.789   5.079   0.528  0.3420  1.4704 -1.4738
 8823SOL    HW228464   7.665   5.151   0.480 -1.2074 -0.3990 -0.4325
 8824SOL     OW28465   6.077   8.731   6.035 -0.2665  0.2172 -0.3305
 8824SOL    HW128466   6.000   8.745   5.980 -0.1195  0.3267 -0.5147
 8824SOL    HW228467   6.136   8.803   6.010 -0.1036  0.1283 -0.1990
 8825SOL     OW28468   3.708   0.125   6.539 -0.2302 -0.8418 -0.6269
 8825SOL    HW128469   3.650   0.067   6.588  1.4141 -2.1295 -0.0839
 8825SOL    HW228470   3.765   0.065   6.490  1.7957  0.2631  0.2704
 8826SOL     OW28471   4.822   0.345   3.428  0.1494  0.0980  0.2452
 8826SOL    HW128472   4.760   0.391   3.372 -0.3066  0.3641  0.9435
 8826SOL    HW228473   4.906   0.350   3.382 -0.1258  0.6720 -0.2069
 8827SOL     OW28474   3.752   1.808   7.944  0.3110 -0.0660  0.1671
 8827SOL    HW128475   3.680   1.853   7.900 -1.2267 -1.5381  1.0580
 8827SOL    HW228476   3.767   1.729   7.892 -0.4673 -1.0292  1.3513
 8828SOL     OW28477   0.317   1.746   6.939 -0.8361 -0.0368  0.5696
 8828SOL    HW128478   0.230   1.783   6.927 -0.5038  0.4018 -0.6826
 8828SOL    HW228479   0.355   1.746   6.851  0.2589 -0.6437  1.0222
 8829SOL     OW28480   0.574   2.361   3.614 -0.4426 -0.1846 -0.0351
 8829SOL    HW128481   0.493   2.411   3.605 -0.5517 -0.2219  0.7301
 8829SOL    HW228482   0.545   2.270   3.623 -0.2109 -0.6465 -2.8734
 8830SOL     OW28483   8.232   2.731   1.949 -0.0399  1.0227 -0.2966
 8830SOL    HW128484   8.298   2.799   1.963 -2.2388  3.1824  0.2938
 8830SOL    HW228485   8.264   2.682   1.874  2.2267  1.9402 -0.0091
 8831SOL     OW28486   2.252   0.150   3.689 -0.0240  0.0948  0.8531
 8831SOL    HW128487   2.182   0.196   3.644 -1.5994 -0.8222  2.2493
 8831SOL    HW228488   2.328   0.207   3.680 -1.0098  1.2686 -0.4472
 8832SOL     OW28489   4.449   0.924   5.498  0.1475  0.1356  0.4015
 8832SOL    HW128490   4.428   0.952   5.587 -1.6123  1.6197 -0.4094
 8832SOL    HW228491   4.377   0.957   5.445  2.7083  2.1824 -2.1005
 8833SOL     OW28492   5.671   1.475   8.426 -0.3733 -0.2230  0.1443
 8833SOL    HW128493   5.636   1.432   8.504 -1.3516 -0.0482 -0.1920
 8833SOL    HW228494   5.657   1.568   8.441 -2.6049 -0.2827 -1.1649
 8834SOL     OW28495   0.549   2.981   0.999 -0.0116 -0.1851  0.2024
 8834SOL    HW128496   0.496   3.057   0.975  1.6765  1.3365  0.9936
 8834SOL    HW228497   0.604   2.963   0.923  1.4535  1.1447  0.8752
 8835SOL     OW28498   5.430   0.351   0.127  0.0574  0.3002 -0.2500
 8835SOL    HW128499   5.373   0.309   0.191  0.2607 -1.7775 -1.3418
 8835SOL    HW228500   5.370   0.399   0.070 -0.5049 -0.7728 -0.5941
 8836SOL     OW28501   0.963   4.175   3.783  0.3073 -0.0153  0.0833
 8836SOL    HW128502   0.944   4.093   3.830 -0.5396 -1.0281 -1.8987
 8836SOL    HW228503   0.883   4.227   3.792 -0.9101 -1.3125 -2.3112
 8837SOL     OW28504   8.219   1.037   1.944 -0.5739  0.3941 -0.0495
 8837SOL    HW128505   8.301   1.044   1.895 -1.2203 -0.2571 -1.2661
 8837SOL    HW228506   8.229   1.100   2.016  1.2077 -0.0571  0.1563
 8838SOL     OW28507   1.965   2.008   8.159 -0.1279 -0.1182  0.4984
 8838SOL    HW128508   2.046   1.984   8.113  0.2135  0.0880  0.9836
 8838SOL    HW228509   1.940   2.092   8.121 -0.0637 -0.1391  0.4095
 8839SOL     OW28510   6.253   0.814   0.307 -0.3711 -0.2700  0.2676
 8839SOL    HW128511   6.281   0.861   0.385  1.2362  1.7079 -1.3696
 8839SOL    HW228512   6.281   0.724   0.320 -0.2090  0.0037  1.9728
 8840SOL     OW28513   8.373   1.854   1.132 -0.4297  0.2317  0.0061
 8840SOL    HW128514   8.460   1.819   1.152 -0.2206  0.6170 -0.2269
 8840SOL    HW228515   8.319   1.826   1.206 -0.5202 -1.4542 -0.6582
 8841SOL     OW28516   1.510   8.072   6.031 -0.4109  0.7020 -0.0303
 8841SOL    HW128517   1.523   8.020   6.110  1.6318  0.6357 -0.3703
 8841SOL    HW228518   1.587   8.128   6.026 -0.0382  0.0931 -2.4317
 8842SOL     OW28519   5.193   4.254   6.858 -0.0389 -0.0137 -0.4605
 8842SOL    HW128520   5.118   4.247   6.799  0.2362 -0.4550 -0.7681
 8842SOL    HW228521   5.166   4.316   6.925 -0.5608  0.0708 -0.7473
 8843SOL     OW28522   4.491   1.134   7.774 -0.0840  0.0977 -0.3166
 8843SOL    HW128523   4.459   1.169   7.690 -1.4009  0.9312  0.5037
 8843SOL    HW228524   4.586   1.138   7.766 -0.1716  2.4398 -0.8852
 8844SOL     OW28525   5.242   8.126   4.015 -0.4196 -0.0576 -0.3622
 8844SOL    HW128526   5.277   8.040   3.991  1.3978  0.7332 -0.6389
 8844SOL    HW228527   5.237   8.174   3.932 -1.3026  0.1676 -0.1906
 8845SOL     OW28528   1.038   0.301   5.428  0.4135 -0.4995  0.2456
 8845SOL    HW128529   1.112   0.318   5.487  1.3184 -0.0018 -0.9643
 8845SOL    HW228530   1.008   0.214   5.451  0.3746 -0.1003  1.8053
 8846SOL     OW28531   3.821   2.821   0.590 -0.3694 -0.0001 -0.4577
 8846SOL    HW128532   3.802   2.806   0.683 -0.9844 -0.8419 -0.7084
 8846SOL    HW228533   3.885   2.754   0.567  1.5123  1.5861 -0.1175
 8847SOL     OW28534   2.562   1.671   1.663 -0.0493  0.3973 -0.0652
 8847SOL    HW128535   2.611   1.593   1.689 -0.1766  0.6184  0.8711
 8847SOL    HW228536   2.503   1.640   1.594  1.0586  0.0288 -0.8773
 8848SOL     OW28537   0.613   0.503   0.775 -0.2743  0.5737 -0.2402
 8848SOL    HW128538   0.690   0.497   0.831 -0.1557  0.5981 -0.3998
 8848SOL    HW228539   0.639   0.563   0.705 -0.5920  0.9420 -0.0471
 8849SOL     OW28540   0.330   7.832   8.364 -0.2112 -0.0560 -0.5789
 8849SOL    HW128541   0.280   7.910   8.340 -0.0746  0.8656  1.8133
 8849SOL    HW228542   0.264   7.769   8.392 -0.2120  0.4057  0.5473
 8850SOL     OW28543   6.903   1.126   3.887  0.4958 -0.7096 -0.0265
 8850SOL    HW128544   6.830   1.130   3.825 -0.3493  1.3630  1.0050
 8850SOL    HW228545   6.922   1.033   3.896 -0.7744 -1.1798 -1.7495
 8851SOL     OW28546   4.966   1.788   8.670 -0.4249  0.3526  0.0512
 8851SOL    HW128547   4.960   1.834   8.754  0.4031  1.6330 -0.5548
 8851SOL    HW228548   5.038   1.831   8.625 -0.2055 -0.9953 -0.9221
 8852SOL     OW28549   4.245   4.153   7.346  0.1601 -0.3352 -0.3993
 8852SOL    HW128550   4.287   4.218   7.401  1.4766 -1.0231 -0.5584
 8852SOL    HW228551   4.308   4.135   7.277 -0.9876 -0.3522 -1.4817
 8853SOL     OW28552   1.513   5.275   5.932 -0.2776  0.0779 -0.4943
 8853SOL    HW128553   1.475   5.346   5.984  1.5563  1.4148 -0.8999
 8853SOL    HW228554   1.567   5.226   5.994  0.1992  0.3840 -0.6574
 8854SOL     OW28555   5.321   7.465   8.141  0.2819 -0.4555 -0.3270
 8854SOL    HW128556   5.347   7.495   8.228  0.4404 -1.0415 -0.1653
 8854SOL    HW228557   5.237   7.508   8.124 -1.7076 -3.2155  1.7342
 8855SOL     OW28558   2.426   2.459   8.180  0.2834  0.1550  0.5058
 8855SOL    HW128559   2.399   2.548   8.201  0.7760 -0.2820  3.5081
 8855SOL    HW228560   2.349   2.406   8.199  0.0277 -0.0965 -1.1519
 8856SOL     OW28561   7.333   2.297   8.465 -0.4035 -0.2766 -0.0349
 8856SOL    HW128562   7.389   2.331   8.395  0.3665  1.8652  1.5038
 8856SOL    HW228563   7.289   2.222   8.426  0.6852  0.2569 -2.5034
 8857SOL     OW28564   0.394   8.213   6.335 -0.2632  0.5891 -0.2346
 8857SOL    HW128565   0.417   8.306   6.339 -0.4664  0.6031  1.4147
 8857SOL    HW228566   0.420   8.179   6.421  0.9686 -1.1694 -1.2416
 8858SOL     OW28567   8.739   4.039   7.715 -0.1166 -0.4271  0.3752
 8858SOL    HW128568   8.812   4.032   7.777 -0.3069  0.1713  0.6725
 8858SOL    HW228569   8.692   4.118   7.742 -0.6297 -0.5712 -0.0797
 8859SOL     OW28570   4.008   2.065   3.866  0.1317  0.3016  0.1339
 8859SOL    HW128571   3.919   2.041   3.893 -0.1894  0.6109 -0.6196
 8859SOL    HW228572   4.034   2.133   3.928  0.8858 -1.6144  2.0233
 8860SOL     OW28573   4.519   3.365   7.033  0.3128 -0.3245  0.0439
 8860SOL    HW128574   4.540   3.426   6.962  0.0741 -2.4401 -1.9358
 8860SOL    HW228575   4.603   3.341   7.071  0.9713 -2.6455 -2.6095
 8861SOL     OW28576   2.608   2.374   5.076  0.1025  0.2773 -0.3787
 8861SOL    HW128577   2.677   2.437   5.054  1.6007 -0.3441  2.1933
 8861SOL    HW228578   2.633   2.294   5.030 -1.8607  1.3674 -3.7445
 8862SOL     OW28579   0.187   6.496   7.461  0.2863 -0.8513  0.2298
 8862SOL    HW128580   0.211   6.580   7.422 -1.6678 -0.9976 -1.4629
 8862SOL    HW228581   0.269   6.446   7.462  1.0356  0.2906 -0.8022
 8863SOL     OW28582   6.763   0.616   7.907  0.1535 -0.3757 -0.4459
 8863SOL    HW128583   6.768   0.687   7.843  0.9422  0.2662  0.3150
 8863SOL    HW228584   6.854   0.594   7.926 -0.0594 -0.3233  0.7006
 8864SOL     OW28585   6.779   2.981   1.359  0.1243 -0.0497  0.3998
 8864SOL    HW128586   6.777   2.991   1.264  0.1091 -1.0557  0.2797
 8864SOL    HW228587   6.687   2.983   1.386 -0.1059 -2.4510  0.0466
 8865SOL     OW28588   2.691   8.628   7.494  0.1230  0.4373 -0.0528
 8865SOL    HW128589   2.625   8.604   7.430  0.1423 -0.1642  0.1498
 8865SOL    HW228590   2.695   8.724   7.490  0.1804  0.4004 -1.0031
 8866SOL     OW28591   1.625   5.181   0.959 -0.2979 -0.0355  0.2746
 8866SOL    HW128592   1.531   5.182   0.973 -0.4690  0.1402 -0.8071
 8866SOL    HW228593   1.643   5.101   0.911 -0.1804  0.8282 -1.1969
 8867SOL     OW28594   0.107   2.559   6.761  0.3310 -0.2826 -0.2801
 8867SOL    HW128595   0.082   2.626   6.697 -0.0793 -1.6036 -1.5659
 8867SOL    HW228596   0.195   2.584   6.789 -0.3184  1.5037  0.2775
 8868SOL     OW28597   7.092   5.481   5.712 -0.5728 -0.8551  0.6513
 8868SOL    HW128598   7.075   5.563   5.667  0.4615 -0.0298  1.7076
 8868SOL    HW228599   7.140   5.506   5.790  0.7628 -2.5724  0.4313
 8869SOL     OW28600   5.700   8.209   6.021 -0.1503  0.7711 -0.6732
 8869SOL    HW128601   5.677   8.221   6.113  4.5720  1.3109  0.6771
 8869SOL    HW228602   5.668   8.288   5.978 -1.6082  0.9435  0.6242
 8870SOL     OW28603   7.634   2.827   2.262 -0.3034 -0.3130  0.2349
 8870SOL    HW128604   7.607   2.748   2.214 -0.4643  0.5794 -1.2242
 8870SOL    HW228605   7.551   2.866   2.292 -0.5578  1.0206 -1.9515
 8871SOL     OW28606   8.452   8.297   4.537 -0.0655  0.0082 -0.0733
 8871SOL    HW128607   8.442   8.306   4.632 -1.6126 -0.5286 -0.1652
 8871SOL    HW228608   8.448   8.386   4.504  0.2835  0.1843  0.3476
 8872SOL     OW28609   6.506   6.488   8.149  0.2706 -0.1565  0.0880
 8872SOL    HW128610   6.500   6.422   8.080  1.4283  1.3951 -1.5804
 8872SOL    HW228611   6.559   6.447   8.217 -0.9271 -1.7390  0.1177
 8873SOL     OW28612   7.724   6.264   7.820 -0.0339  0.0821  0.9108
 8873SOL    HW128613   7.698   6.210   7.745 -1.6702 -2.7611  3.3093
 8873SOL    HW228614   7.812   6.295   7.797  0.0562 -1.6896 -1.6355
 8874SOL     OW28615   4.871   5.834   2.541 -0.5194  0.0814 -0.2339
 8874SOL    HW128616   4.793   5.780   2.526 -0.7239  0.7557 -1.7381
 8874SOL    HW228617   4.941   5.771   2.560 -1.1441 -0.5954 -0.1338
 8875SOL     OW28618   3.460   1.173   8.011  0.2633 -0.4610 -0.1380
 8875SOL    HW128619   3.489   1.162   7.920 -0.2518  0.8222 -0.4756
 8875SOL    HW228620   3.447   1.084   8.042  0.3967 -0.9261 -1.3412
 8876SOL     OW28621   1.666   5.798   1.996  0.1811  0.1864 -0.9490
 8876SOL    HW128622   1.725   5.762   2.062 -1.5217 -2.2335 -0.5744
 8876SOL    HW228623   1.663   5.892   2.014  0.7877 -0.2086  1.6081
 8877SOL     OW28624   4.027   0.785   5.558 -0.3298  0.6835 -0.6191
 8877SOL    HW128625   4.040   0.691   5.546  0.2629  0.8782 -1.6321
 8877SOL    HW228626   4.107   0.824   5.524 -0.5490  1.5531 -0.1481
 8878SOL     OW28627   2.211   8.163   8.409  0.1804 -0.2789  0.1073
 8878SOL    HW128628   2.291   8.129   8.448  1.1268  1.3791 -0.3103
 8878SOL    HW228629   2.169   8.212   8.479  0.2841  0.0875 -0.0871
 8879SOL     OW28630   0.162   2.812   3.372 -0.2448  0.0257 -0.2369
 8879SOL    HW128631   0.119   2.726   3.371 -0.3986  0.0195  1.8770
 8879SOL    HW228632   0.248   2.796   3.333  0.0286 -1.2904  0.8341
 8880SOL     OW28633   1.090   5.421   8.365  0.0303 -0.2352  0.0732
 8880SOL    HW128634   1.076   5.382   8.278 -2.3092  1.2825 -0.3261
 8880SOL    HW228635   1.022   5.382   8.420  0.1307  0.3959  0.6560
 8881SOL     OW28636   4.006   1.654   1.602  0.0793 -0.5815 -0.1593
 8881SOL    HW128637   4.090   1.699   1.607 -0.9511  1.4852 -0.3202
 8881SOL    HW228638   3.991   1.641   1.509  0.4447 -1.4491 -0.1067
 8882SOL     OW28639   8.655   0.489   8.854 -0.2541 -0.1847 -0.3473
 8882SOL    HW128640   8.737   0.448   8.828 -0.5121 -0.5695 -0.5779
 8882SOL    HW228641   8.588   0.442   8.803 -0.4813  1.1091 -1.3026
 8883SOL     OW28642   4.256   7.977   2.188  0.4420  0.0556 -0.0404
 8883SOL    HW128643   4.231   8.030   2.113  1.0881  0.5215  0.0643
 8883SOL    HW228644   4.212   8.018   2.262  0.2868 -0.0455 -0.0765
 8884SOL     OW28645   6.163   4.821   8.210  0.3383 -0.3993 -0.1165
 8884SOL    HW128646   6.214   4.894   8.176 -1.4064  0.1184 -1.7975
 8884SOL    HW228647   6.174   4.752   8.144  0.5260 -1.0256  0.5599
 8885SOL     OW28648   2.851   2.280   2.809 -0.5783 -0.4491  0.4397
 8885SOL    HW128649   2.879   2.355   2.861  1.0577 -1.3043  0.8769
 8885SOL    HW228650   2.926   2.220   2.812 -1.5221 -1.7340 -0.5827
 8886SOL     OW28651   7.035   1.089   2.064  0.1266 -0.3963  0.3815
 8886SOL    HW128652   7.032   1.078   2.159 -0.3768  0.6244  0.4911
 8886SOL    HW228653   7.079   1.010   2.032  1.2359 -0.2634  1.5364
 8887SOL     OW28654   1.188   1.667   3.866  0.7379  0.0640 -0.0515
 8887SOL    HW128655   1.104   1.679   3.910  0.0772 -1.3687 -0.8597
 8887SOL    HW228656   1.234   1.749   3.881 -0.6686  0.7646  0.6871
 8888SOL     OW28657   7.750   0.202   2.120 -0.0841 -0.0316 -0.2377
 8888SOL    HW128658   7.694   0.179   2.046 -0.6427 -0.2297  0.2414
 8888SOL    HW228659   7.698   0.181   2.197 -0.4786  2.4969  0.2474
 8889SOL     OW28660   2.430   8.840   7.666  1.0893  0.0745 -0.6097
 8889SOL    HW128661   2.344   8.867   7.699  1.6214 -1.0887  1.9503
 8889SOL    HW228662   2.414   8.758   7.620  0.8790 -0.3746  0.2546
 8890SOL     OW28663   4.160   2.608   4.080  0.1562  0.1540  0.1776
 8890SOL    HW128664   4.102   2.620   4.005 -0.9523  1.5409  1.1974
 8890SOL    HW228665   4.168   2.513   4.089 -1.9384 -0.0941 -0.0500
 8891SOL     OW28666   2.267   0.217   3.289 -0.4180  0.0756  0.0919
 8891SOL    HW128667   2.187   0.250   3.248 -1.4154 -1.4500  0.6966
 8891SOL    HW228668   2.288   0.281   3.357 -2.0242 -0.2321  0.9383
 8892SOL     OW28669   4.878   8.412   6.870 -0.2983 -0.4445 -0.2885
 8892SOL    HW128670   4.875   8.507   6.864  2.0983 -0.3645 -0.8651
 8892SOL    HW228671   4.842   8.381   6.787  1.0541  0.0284 -1.0724
 8893SOL     OW28672   3.571   5.541   1.581  0.0513 -0.2253  0.3812
 8893SOL    HW128673   3.586   5.469   1.520 -0.5127 -1.3724  1.5650
 8893SOL    HW228674   3.521   5.605   1.530 -1.2696 -1.5900 -0.0996
 8894SOL     OW28675   5.723   6.116   0.741  0.0375  0.7096 -0.1591
 8894SOL    HW128676   5.798   6.076   0.698 -0.0707  0.3042  0.0217
 8894SOL    HW228677   5.740   6.210   0.739  0.9917  0.5703  0.6854
 8895SOL     OW28678   8.850   5.169   6.898 -0.1334 -0.1490  0.3008
 8895SOL    HW128679   8.870   5.249   6.947  0.0272 -0.4366  0.7094
 8895SOL    HW228680   8.768   5.189   6.851  0.4634  0.6179 -0.4442
 8896SOL     OW28681   0.635   6.423   6.281  0.0936  0.2661  0.1919
 8896SOL    HW128682   0.579   6.412   6.205  0.1254 -0.8879  0.3196
 8896SOL    HW228683   0.708   6.363   6.267 -0.3923 -0.7141  1.5691
 8897SOL     OW28684   0.966   3.701   6.267  0.1384 -0.4560 -0.2421
 8897SOL    HW128685   0.956   3.738   6.179 -0.4774  0.1955  0.0933
 8897SOL    HW228686   0.924   3.765   6.325  0.2741 -1.0240  0.4961
 8898SOL     OW28687   0.768   4.718   7.393 -0.5224  0.0161  0.1192
 8898SOL    HW128688   0.719   4.737   7.473  0.1944 -0.7556  0.7573
 8898SOL    HW228689   0.737   4.632   7.365  0.4093 -0.4453  0.4865
 8899SOL     OW28690   1.915   2.402   8.415  0.0039  0.0713  0.0253
 8899SOL    HW128691   1.926   2.319   8.462 -1.2570 -0.5071 -0.6369
 8899SOL    HW228692   1.931   2.470   8.481  2.6007 -0.6298  0.2431
 8900SOL     OW28693   2.195   3.659   2.405 -0.1949 -0.3393 -0.3300
 8900SOL    HW128694   2.176   3.750   2.426 -1.2674 -1.0149  1.8765
 8900SOL    HW228695   2.262   3.633   2.468 -1.2573 -1.5933  0.3207
 8901SOL     OW28696   0.218   4.064   0.694  0.0786  0.6102  0.0151
 8901SOL    HW128697   0.296   4.094   0.648  0.0061 -0.0261 -0.5436
 8901SOL    HW228698   0.249   4.033   0.779  0.5318 -0.2381 -0.4498
 8902SOL     OW28699   6.283   5.203   2.574 -0.1456 -0.1942 -0.1146
 8902SOL    HW128700   6.368   5.178   2.612  0.0346 -0.2307 -0.5433
 8902SOL    HW228701   6.274   5.296   2.597 -0.0064 -0.1974 -0.0415
 8903SOL     OW28702   0.919   1.979   8.564 -0.0357 -0.4861  0.1789
 8903SOL    HW128703   0.913   2.019   8.651 -0.2489 -1.2555  0.5240
 8903SOL    HW228704   0.932   2.053   8.505 -1.5981  0.2201  0.6608
 8904SOL     OW28705   2.676   0.439   7.677 -0.1116  0.2750  0.0108
 8904SOL    HW128706   2.629   0.497   7.617  1.0012  1.3532  0.1468
 8904SOL    HW228707   2.665   0.351   7.640 -1.9498  0.5166 -0.1163
 8905SOL     OW28708   2.484   7.557   3.509 -0.2154 -0.2193 -0.7503
 8905SOL    HW128709   2.470   7.578   3.601 -1.2051 -0.1724 -0.8933
 8905SOL    HW228710   2.453   7.635   3.462  1.3731  0.2339 -1.0953
 8906SOL     OW28711   1.486   3.501   0.627  0.9434 -0.3054 -0.6940
 8906SOL    HW128712   1.401   3.545   0.628  1.1817  0.1500 -0.4311
 8906SOL    HW228713   1.501   3.476   0.718  1.5088  0.4249 -0.5830
 8907SOL     OW28714   2.521   2.722   0.646 -0.0052 -0.0749  0.5104
 8907SOL    HW128715   2.549   2.650   0.590  0.4021  0.2819  0.2430
 8907SOL    HW228716   2.571   2.710   0.727 -0.3374 -0.3962  0.6681
 8908SOL     OW28717   6.538   5.778   1.816  0.0830  0.6516  0.0555
 8908SOL    HW128718   6.486   5.835   1.760 -2.9217 -3.0865 -1.4089
 8908SOL    HW228719   6.474   5.735   1.873  2.1763 -1.0272  1.3106
 8909SOL     OW28720   4.815   1.486   7.004  0.3687 -0.0199 -0.4426
 8909SOL    HW128721   4.909   1.504   7.002  0.2495  0.6122 -0.4513
 8909SOL    HW228722   4.807   1.407   7.058  1.0630 -1.1330 -1.8991
 8910SOL     OW28723   1.973   7.712   6.823  0.3217 -0.2653  0.6615
 8910SOL    HW128724   1.980   7.629   6.776  2.6013  1.0526 -1.6527
 8910SOL    HW228725   1.880   7.733   6.823 -0.0994 -2.0152 -0.1971
 8911SOL     OW28726   2.215   6.391   1.850  0.5503  0.1010  0.3292
 8911SOL    HW128727   2.231   6.305   1.813  0.7338 -0.6454  2.0619
 8911SOL    HW228728   2.133   6.420   1.811  0.5268 -0.8183 -0.3241
 8912SOL     OW28729   5.388   7.280   6.214 -0.1708 -0.3724  0.7607
 8912SOL    HW128730   5.372   7.199   6.166 -0.9183  0.0781  0.2179
 8912SOL    HW228731   5.479   7.302   6.195  0.9123 -2.4421  3.0321
 8913SOL     OW28732   2.612   8.310   6.554 -0.2152 -0.3617  0.3615
 8913SOL    HW128733   2.588   8.385   6.609  1.9214  1.2870 -0.7775
 8913SOL    HW228734   2.705   8.296   6.572  0.2319 -0.5936 -1.8217
 8914SOL     OW28735   3.994   6.784   8.860  0.4396 -0.7113  0.1485
 8914SOL    HW128736   3.938   6.838   8.914 -0.9235 -0.2183 -1.6473
 8914SOL    HW228737   3.953   6.786   8.773  2.4552 -1.5110 -0.9005
 8915SOL     OW28738   5.931   8.150   7.011  0.5378 -0.3554 -0.0299
 8915SOL    HW128739   5.976   8.215   7.064 -0.4758  0.2276  0.1374
 8915SOL    HW228740   5.838   8.162   7.031  0.1390 -0.3118 -1.6933
 8916SOL     OW28741   8.711   7.336   1.865 -0.0237  0.1773  0.8321
 8916SOL    HW128742   8.751   7.420   1.889  0.2193  0.0676  0.8134
 8916SOL    HW228743   8.768   7.270   1.905  0.0553  0.0084  0.4501
 8917SOL     OW28744   3.701   5.874   4.097  0.1819  0.0644  0.2223
 8917SOL    HW128745   3.646   5.798   4.077  0.8015  0.0304 -1.4727
 8917SOL    HW228746   3.678   5.939   4.030  0.7887  0.8046  0.7103
 8918SOL     OW28747   7.893   0.915   1.117  0.0751 -0.0051  0.7962
 8918SOL    HW128748   7.969   0.865   1.149  0.3137 -0.8360 -0.9706
 8918SOL    HW228749   7.852   0.858   1.053 -1.4742  0.8593  0.9724
 8919SOL     OW28750   2.024   1.292   5.027  0.3174  0.1832 -0.3138
 8919SOL    HW128751   1.951   1.237   4.999  0.1924  1.9253 -4.0802
 8919SOL    HW228752   2.067   1.243   5.097 -2.0128 -2.7999 -0.8069
 8920SOL     OW28753   3.753   2.414   7.473  0.8294 -0.1133 -0.0729
 8920SOL    HW128754   3.757   2.326   7.511 -1.4091 -0.5180 -0.6317
 8920SOL    HW228755   3.700   2.464   7.535  0.4307  0.2840 -0.7223
 8921SOL     OW28756   4.956   8.375   8.650 -0.6456 -0.2666  0.4860
 8921SOL    HW128757   4.913   8.289   8.655 -2.7649  0.7204  0.6356
 8921SOL    HW228758   4.924   8.413   8.568  0.5537  0.2560  0.2401
 8922SOL     OW28759   4.652   7.707   2.448  0.4145 -0.0787  0.3724
 8922SOL    HW128760   4.616   7.791   2.474  1.0366 -0.0676  1.2225
 8922SOL    HW228761   4.726   7.729   2.391  1.8509  0.0530  2.1778
 8923SOL     OW28762   0.135   0.046   4.897  0.0168 -0.3301 -0.3169
 8923SOL    HW128763   0.173   0.059   4.811 -0.2192 -0.1915 -0.4024
 8923SOL    HW228764   0.175  -0.035   4.930 -0.1276 -0.5522 -0.6855
 8924SOL     OW28765   2.603   6.382   2.725  0.3128  0.0982 -0.4606
 8924SOL    HW128766   2.533   6.400   2.662 -0.1917 -0.6121 -0.1156
 8924SOL    HW228767   2.633   6.294   2.705 -0.8118 -0.7007  1.1462
 8925SOL     OW28768   2.964   0.754   6.397  0.1492 -0.4893 -0.8427
 8925SOL    HW128769   3.051   0.724   6.371  1.2780  1.4236  0.4005
 8925SOL    HW228770   2.931   0.801   6.320  0.4620 -0.7709 -1.1500
 8926SOL     OW28771   1.777   5.177   2.253  0.1585 -0.3805 -0.6647
 8926SOL    HW128772   1.715   5.229   2.304  0.2839 -0.3802 -0.5123
 8926SOL    HW228773   1.731   5.094   2.237  0.0255 -0.2876 -0.7587
 8927SOL     OW28774   6.516   8.422   5.616 -0.5537 -0.1255 -0.6662
 8927SOL    HW128775   6.437   8.392   5.571 -1.3183 -0.2728  0.6848
 8927SOL    HW228776   6.486   8.440   5.706  1.2545 -1.7617  0.3388
 8928SOL     OW28777   0.685   8.375   8.039 -0.4121 -0.4376 -0.3997
 8928SOL    HW128778   0.686   8.437   8.112 -1.0379 -0.8527 -0.0211
 8928SOL    HW228779   0.714   8.426   7.964  1.2704 -0.2515  0.3201
 8929SOL     OW28780   5.157   3.479   1.708 -0.3197  0.6592  0.1427
 8929SOL    HW128781   5.228   3.538   1.732  0.7370  0.2283 -1.7205
 8929SOL    HW228782   5.161   3.409   1.773  0.4106  1.0745  0.5572
 8930SOL     OW28783   5.282   7.542   3.128 -0.2455  0.0220  0.2460
 8930SOL    HW128784   5.314   7.482   3.195  1.2726 -1.8257 -1.9458
 8930SOL    HW228785   5.247   7.485   3.060 -2.2753  1.8269 -0.3417
 8931SOL     OW28786   7.411   3.328   0.706 -0.5116 -0.1861 -0.1594
 8931SOL    HW128787   7.321   3.350   0.732 -0.8259 -0.6529 -0.8534
 8931SOL    HW228788   7.441   3.267   0.774 -0.8155 -0.2566 -0.0864
 8932SOL     OW28789   5.030   4.912   3.524  0.1911 -0.2618  0.1612
 8932SOL    HW128790   4.983   4.940   3.446  0.6327  0.8194  0.2632
 8932SOL    HW228791   4.966   4.918   3.594  0.1049 -0.1132  0.0704
 8933SOL     OW28792   2.144   8.342   3.294 -0.0602 -0.0392  0.3548
 8933SOL    HW128793   2.189   8.281   3.236  0.4926 -0.1134  0.8567
 8933SOL    HW228794   2.215   8.388   3.340 -0.4951 -1.3252  2.3913
 8934SOL     OW28795   6.734   4.941   8.482  0.2352  0.0891 -0.6509
 8934SOL    HW128796   6.665   5.003   8.506 -0.4403 -1.1337  0.7195
 8934SOL    HW228797   6.800   4.951   8.550  0.8939  0.4253 -1.3218
 8935SOL     OW28798   6.185   1.540   8.849  0.1072 -0.1414 -0.1900
 8935SOL    HW128799   6.176   1.476   8.920  0.3230  1.0532  0.9526
 8935SOL    HW228800   6.112   1.601   8.863 -0.3545 -0.3586 -1.5230
 8936SOL     OW28801   7.014   0.895   3.566  0.1206 -0.1169  0.2048
 8936SOL    HW128802   7.066   0.889   3.486  0.4786 -1.0325  0.4883
 8936SOL    HW228803   7.072   0.865   3.636 -0.4045  0.0013  0.7047
 8937SOL     OW28804   6.915   6.088   5.676 -0.4805  0.1339 -0.4339
 8937SOL    HW128805   6.976   6.080   5.603  2.5008  0.8723  1.7888
 8937SOL    HW228806   6.908   6.182   5.692 -1.5629  0.0146 -0.1231
 8938SOL     OW28807   7.673   4.066   7.462 -0.5907  0.4234 -0.0207
 8938SOL    HW128808   7.580   4.063   7.440 -0.9383 -0.1101  1.4473
 8938SOL    HW228809   7.691   3.980   7.499  0.5630  0.4342 -0.5186
 8939SOL     OW28810   3.369   8.704   5.048  0.0183 -0.7454 -0.2703
 8939SOL    HW128811   3.310   8.632   5.072 -2.6224  1.8526  1.8292
 8939SOL    HW228812   3.352   8.719   4.955 -0.9265 -1.5448 -0.2415
 8940SOL     OW28813   6.305   8.824   7.958  0.3226  0.6992  0.1544
 8940SOL    HW128814   6.339   8.902   8.001 -0.6722  1.4383 -0.3809
 8940SOL    HW228815   6.319   8.839   7.865  2.1069 -0.7276  0.1197
 8941SOL     OW28816   2.512   0.283   6.218  0.5996  0.4546  0.7922
 8941SOL    HW128817   2.465   0.362   6.243  0.3075  0.3135  0.6940
 8941SOL    HW228818   2.445   0.224   6.185  1.1566  1.4406 -2.4791
 8942SOL     OW28819   2.559   0.346   5.694 -0.3472  0.2730  0.0924
 8942SOL    HW128820   2.528   0.280   5.632  0.4784  1.0853 -1.2245
 8942SOL    HW228821   2.558   0.302   5.779  0.7334 -1.6262 -0.8318
 8943SOL     OW28822   3.685   0.735   6.170  0.3407 -0.2693 -0.1095
 8943SOL    HW128823   3.663   0.682   6.094  0.9418  0.8181 -1.0661
 8943SOL    HW228824   3.775   0.764   6.154 -0.0802  1.3144  0.1992
 8944SOL     OW28825   3.763   4.668   5.961  0.0975 -0.1706  0.1767
 8944SOL    HW128826   3.823   4.602   5.996 -0.8862 -1.3966 -0.3703
 8944SOL    HW228827   3.699   4.618   5.911 -1.4546  1.0866  0.8316
 8945SOL     OW28828   7.372   5.623   7.840  0.1544 -0.1104  0.0426
 8945SOL    HW128829   7.277   5.620   7.856  0.1961 -1.6056  0.1631
 8945SOL    HW228830   7.388   5.551   7.779  1.4008 -0.7789  1.1157
 8946SOL     OW28831   3.548   0.663   3.085 -0.1330 -0.2025  0.4781
 8946SOL    HW128832   3.455   0.643   3.069  0.1041 -1.7822  0.9140
 8946SOL    HW228833   3.562   0.746   3.039 -2.0447  0.6998  1.3863
 8947SOL     OW28834   7.623   5.273   1.896 -0.1282 -0.0387 -0.0539
 8947SOL    HW128835   7.603   5.337   1.964  1.2460  1.2104 -0.7507
 8947SOL    HW228836   7.556   5.287   1.829  0.5071  1.1603 -0.4803
 8948SOL     OW28837   2.173   4.670   5.375  0.0032  0.2404 -0.0303
 8948SOL    HW128838   2.132   4.753   5.398 -0.2199 -0.4093  2.0777
 8948SOL    HW228839   2.215   4.640   5.455 -0.6743 -2.1116 -0.4729
 8949SOL     OW28840   8.664   8.386   6.183 -0.1938 -0.0492 -0.0136
 8949SOL    HW128841   8.636   8.470   6.219 -0.4669 -0.6444  1.1799
 8949SOL    HW228842   8.719   8.410   6.108 -0.3818  1.1873  0.2268
 8950SOL     OW28843   0.659   7.378   6.377  0.6105  0.2802  0.2592
 8950SOL    HW128844   0.566   7.372   6.400  0.3522  1.8171 -0.2690
 8950SOL    HW228845   0.675   7.300   6.323 -0.2872 -0.1434  0.5707
 8951SOL     OW28846   1.939   8.526   4.165  0.0835 -0.4784  0.0839
 8951SOL    HW128847   1.980   8.452   4.209  0.2146  0.0228  0.8236
 8951SOL    HW228848   2.010   8.568   4.118  0.6025  0.7352  1.8341
 8952SOL     OW28849   0.141   3.848   7.217 -0.0194 -0.1277  0.3616
 8952SOL    HW128850   0.107   3.765   7.184 -1.4249  0.1090  1.1148
 8952SOL    HW228851   0.134   3.908   7.143 -2.2981  0.1725  0.7443
 8953SOL     OW28852   7.442   3.012   3.654  0.2375 -0.1025 -0.1023
 8953SOL    HW128853   7.490   3.086   3.689  1.0137 -0.5390 -0.2292
 8953SOL    HW228854   7.357   3.048   3.627  0.2766  0.5574  0.6458
 8954SOL     OW28855   7.218   2.837   3.885  0.3868 -0.0576  0.5667
 8954SOL    HW128856   7.311   2.857   3.878  0.3232  0.0726  0.0900
 8954SOL    HW228857   7.214   2.745   3.912  0.6408 -0.3636 -0.4185
 8955SOL     OW28858   0.111   6.082   7.275  0.1964  0.5582 -0.7297
 8955SOL    HW128859   0.042   6.026   7.311 -0.4344  1.3581 -0.6600
 8955SOL    HW228860   0.193   6.040   7.303 -0.2629  0.6498  0.8488
 8956SOL     OW28861   1.735   5.464   6.436 -0.3331 -0.1098  0.6551
 8956SOL    HW128862   1.806   5.430   6.382  0.1485  0.5321  0.8763
 8956SOL    HW228863   1.672   5.500   6.373 -0.6351 -0.9754  0.4423
 8957SOL     OW28864   6.789   0.633   1.627 -0.3226  0.0504  0.2561
 8957SOL    HW128865   6.768   0.542   1.609 -1.2003  0.2347  0.3431
 8957SOL    HW228866   6.882   0.632   1.650 -0.2575 -0.7750 -0.0362
 8958SOL     OW28867   2.300   2.445   8.617 -0.0150  0.4154 -0.1604
 8958SOL    HW128868   2.293   2.432   8.522 -0.8576 -1.0850  0.0719
 8958SOL    HW228869   2.354   2.523   8.626  0.2636  0.4746 -1.8762
 8959SOL     OW28870   6.299   1.033   5.106 -0.6060  0.1290  0.1312
 8959SOL    HW128871   6.375   1.059   5.053  0.4452  0.3676  1.6642
 8959SOL    HW228872   6.235   1.102   5.091  0.4018  1.2058  0.5923
 8960SOL     OW28873   0.117   5.656   5.317  0.1796 -0.0022 -0.6765
 8960SOL    HW128874   0.064   5.625   5.244 -0.6408  2.1006 -1.0448
 8960SOL    HW228875   0.206   5.626   5.297 -0.1239  0.0599 -2.2585
 8961SOL     OW28876   6.254   4.752   4.846  0.3663  0.2497 -0.0089
 8961SOL    HW128877   6.222   4.825   4.793  0.3969 -0.5055 -1.1057
 8961SOL    HW228878   6.209   4.675   4.810  1.0296 -0.3918  0.5079
 8962SOL     OW28879   0.443   8.460   2.470 -0.7213 -0.1793 -0.0097
 8962SOL    HW128880   0.375   8.393   2.474  0.4639 -1.3796  2.2561
 8962SOL    HW228881   0.507   8.425   2.408 -1.0662 -0.1754 -0.3680
 8963SOL     OW28882   3.379   7.043   1.201 -0.1486  0.4626 -0.3406
 8963SOL    HW128883   3.341   7.122   1.239  1.6702  0.6750  1.2117
 8963SOL    HW228884   3.304   6.987   1.180 -1.3543  1.4287  1.1959
 8964SOL     OW28885   2.371   7.974   5.127 -0.0217  0.1964 -0.3257
 8964SOL    HW128886   2.458   7.938   5.146 -0.3479 -0.3905  0.1056
 8964SOL    HW228887   2.311   7.903   5.148 -0.5882  0.4752 -0.9696
 8965SOL     OW28888   4.964   6.480   0.058  0.4107 -0.1040  0.2743
 8965SOL    HW128889   5.014   6.561   0.052  0.1108  0.1630  1.1856
 8965SOL    HW228890   4.967   6.456   0.151  1.2047 -1.6048 -0.1121
 8966SOL     OW28891   0.001   0.379   1.330  0.4919 -0.2040 -0.0558
 8966SOL    HW128892   0.035   0.463   1.363  1.1554  0.0457 -1.3118
 8966SOL    HW228893   0.046   0.313   1.384  2.7919  0.1360 -1.3970
 8967SOL     OW28894   6.620   4.345   0.247  0.2355 -0.2776  0.1323
 8967SOL    HW128895   6.635   4.251   0.238  0.4649 -0.1434 -1.1406
 8967SOL    HW228896   6.642   4.381   0.161  0.1313  0.9424  0.5909
 8968SOL     OW28897   1.490   4.246   8.215 -0.3631  0.2596 -0.4288
 8968SOL    HW128898   1.471   4.217   8.304 -2.0631  1.7973 -0.2460
 8968SOL    HW228899   1.503   4.165   8.166 -1.2252 -0.6832  0.8323
 8969SOL     OW28900   6.796   1.185   4.520  0.5607  0.7614  0.0988
 8969SOL    HW128901   6.867   1.172   4.583  0.6844 -0.0036 -0.1842
 8969SOL    HW228902   6.827   1.255   4.462  0.0025  2.2327  1.5032
 8970SOL     OW28903   6.848   8.690   5.224 -0.0497 -0.3975  0.4562
 8970SOL    HW128904   6.899   8.764   5.191 -0.8399  0.0316  0.1691
 8970SOL    HW228905   6.845   8.628   5.151  0.1512 -0.4683  0.5094
 8971SOL     OW28906   0.539   2.161   4.891  0.1471  0.0606  0.9398
 8971SOL    HW128907   0.633   2.149   4.884  0.1137  0.6211 -0.8890
 8971SOL    HW228908   0.502   2.087   4.843 -0.3031  0.8520  0.0538
 8972SOL     OW28909   5.811   2.211   1.077 -0.5501 -0.0366 -0.1213
 8972SOL    HW128910   5.876   2.180   1.140 -0.8038 -0.3964 -0.0305
 8972SOL    HW228911   5.855   2.208   0.992 -0.5980 -0.7440 -0.1266
 8973SOL     OW28912   1.695   0.281   1.101 -0.3032  0.4334  0.2080
 8973SOL    HW128913   1.666   0.371   1.081 -0.3765 -0.0478 -2.1316
 8973SOL    HW228914   1.615   0.229   1.092  0.0103 -0.0448  0.2106
 8974SOL     OW28915   6.692   5.578   7.978 -0.3149  0.1790  0.3990
 8974SOL    HW128916   6.760   5.524   7.937  0.2954  0.7803  0.5980
 8974SOL    HW228917   6.690   5.657   7.924 -0.1634  0.5788  0.9716
 8975SOL     OW28918   6.718   6.659   5.916  0.1493  0.4900 -0.5289
 8975SOL    HW128919   6.728   6.719   5.990 -1.2004 -1.7674  1.6440
 8975SOL    HW228920   6.625   6.639   5.914  0.4393 -0.9000 -1.6945
 8976SOL     OW28921   8.142   3.347   3.145 -0.5102 -0.2824  0.4610
 8976SOL    HW128922   8.099   3.391   3.072 -0.8912 -0.5929  0.4889
 8976SOL    HW228923   8.222   3.397   3.161  0.7440 -1.4950 -1.6154
 8977SOL     OW28924   7.690   4.401   5.932 -0.3053 -0.7366  0.3973
 8977SOL    HW128925   7.771   4.370   5.891 -0.2560  1.0069 -0.9154
 8977SOL    HW228926   7.714   4.422   6.022  0.5366 -0.8595  0.2039
 8978SOL     OW28927   1.428   1.381   2.595  0.2291  0.0171  0.3827
 8978SOL    HW128928   1.415   1.305   2.652  1.0440  0.5587  1.3315
 8978SOL    HW228929   1.339   1.416   2.581 -0.3547 -1.9474 -1.3409
 8979SOL     OW28930   3.346   0.208   1.167 -0.3993  0.4977  0.2505
 8979SOL    HW128931   3.394   0.157   1.232 -2.4612 -0.7209  0.9221
 8979SOL    HW228932   3.334   0.294   1.207 -1.4934 -0.1835  1.4944
 8980SOL     OW28933   2.631   4.967   2.205 -0.1367 -0.0344  0.2139
 8980SOL    HW128934   2.717   4.930   2.226  0.2386 -0.0035 -1.1435
 8980SOL    HW228935   2.570   4.921   2.261  0.5687 -1.2499  0.0117
 8981SOL     OW28936   4.443   2.649   3.921 -0.4587  0.2824 -0.0077
 8981SOL    HW128937   4.520   2.596   3.902 -0.3003  0.2912  0.6032
 8981SOL    HW228938   4.381   2.588   3.960 -0.4811  0.4345  0.1923
 8982SOL     OW28939   3.839   1.615   8.149 -0.6885 -0.0633 -0.2752
 8982SOL    HW128940   3.757   1.612   8.198 -1.3813 -1.6209 -1.4541
 8982SOL    HW228941   3.819   1.665   8.070 -0.4506 -0.2914 -0.4826
 8983SOL     OW28942   1.671   6.486   4.049 -0.5479 -0.2455 -0.0983
 8983SOL    HW128943   1.685   6.539   3.971 -2.0776  0.0870 -0.1866
 8983SOL    HW228944   1.590   6.438   4.031 -0.4168 -0.8802  0.9060
 8984SOL     OW28945   5.084   7.846   0.021  0.3141 -0.1967  0.6022
 8984SOL    HW128946   5.017   7.777   0.015 -1.4245  1.4069  0.5318
 8984SOL    HW228947   5.165   7.803  -0.006 -0.9629 -1.8649 -0.8215
 8985SOL     OW28948   0.763   1.733   0.379 -0.2274 -0.1444 -0.4479
 8985SOL    HW128949   0.839   1.784   0.408 -1.3311  0.9554  0.6896
 8985SOL    HW228950   0.754   1.754   0.286 -0.1553  1.1154 -0.1889
 8986SOL     OW28951   0.008   6.109   6.938 -0.0371 -0.2643 -0.0151
 8986SOL    HW128952   0.056   6.187   6.909 -1.2716  0.6176  0.2455
 8986SOL    HW228953   0.042   6.092   7.026 -1.8416  1.8492  1.2061
 8987SOL     OW28954   5.954   0.762   3.194  0.1393 -0.1682  0.7006
 8987SOL    HW128955   5.965   0.786   3.286 -0.8637 -0.7631  0.9886
 8987SOL    HW228956   5.876   0.706   3.192 -0.2652  0.3898 -0.6101
 8988SOL     OW28957   3.192   5.101   5.767 -0.7367 -0.2675 -0.2274
 8988SOL    HW128958   3.121   5.044   5.736  0.7163 -1.1289 -2.2145
 8988SOL    HW228959   3.239   5.048   5.832 -1.1456 -0.1745  0.1497
 8989SOL     OW28960   8.467   1.081   5.380  0.8156  0.3218  0.4406
 8989SOL    HW128961   8.457   1.145   5.450  0.9125 -0.9658  1.6793
 8989SOL    HW228962   8.528   1.122   5.319 -1.5717  2.7469 -0.5036
 8990SOL     OW28963   3.091   2.482   7.261 -0.2920 -0.1113 -0.1003
 8990SOL    HW128964   3.066   2.529   7.340 -0.1758  1.0899 -0.7599
 8990SOL    HW228965   3.186   2.480   7.263 -0.2211  1.3012 -0.9655
 8991SOL     OW28966   4.941   7.689   5.510  0.3851  0.2298  0.0978
 8991SOL    HW128967   4.882   7.622   5.475  0.5722 -0.0482  0.3172
 8991SOL    HW228968   5.024   7.673   5.465 -0.2638  2.0158 -1.9184
 8992SOL     OW28969   5.669   8.085   3.293  0.0293  0.2779  0.0387
 8992SOL    HW128970   5.707   8.041   3.370 -0.6046  1.0255  0.7930
 8992SOL    HW228971   5.658   8.015   3.229  2.1632 -0.0663 -0.0193
 8993SOL     OW28972   0.023   1.993   0.270 -0.0297 -0.3336  0.0749
 8993SOL    HW128973   0.050   2.082   0.248  0.9383 -1.0153 -1.6811
 8993SOL    HW228974   0.047   1.982   0.362  0.2831  1.0419  0.1688
 8994SOL     OW28975   3.123   1.876   2.129  0.1060 -0.2161 -0.3128
 8994SOL    HW128976   3.182   1.915   2.194  0.8866 -1.1535 -0.4415
 8994SOL    HW228977   3.037   1.878   2.170  0.5344 -0.4911  0.6071
 8995SOL     OW28978   7.713   8.609   3.687 -0.5138  0.2972 -0.3676
 8995SOL    HW128979   7.670   8.526   3.666 -0.6159  0.1491  0.3937
 8995SOL    HW228980   7.646   8.659   3.734  0.1933 -0.0217  1.0331
 8996SOL     OW28981   2.412   6.961   7.692 -0.3151 -0.6500 -0.6984
 8996SOL    HW128982   2.497   7.001   7.674 -0.5662  0.0165 -0.4332
 8996SOL    HW228983   2.424   6.869   7.668  0.3037 -0.4459 -1.2227
 8997SOL     OW28984   0.274   7.933   6.494 -0.7146  0.2247 -0.6241
 8997SOL    HW128985   0.271   7.859   6.554  1.5135 -0.4612 -1.2670
 8997SOL    HW228986   0.268   8.010   6.551 -3.3086 -0.3738  0.0322
 8998SOL     OW28987   5.971   3.624   5.717  0.5253  0.2650  0.2545
 8998SOL    HW128988   6.007   3.712   5.724  0.1823  0.3225  1.7427
 8998SOL    HW228989   5.929   3.609   5.802  1.9517 -1.9292  0.6430
 8999SOL     OW28990   5.006   1.516   8.865 -0.1019 -0.3633  0.1172
 8999SOL    HW128991   4.910   1.523   8.860  0.0568  2.4238 -1.4119
 8999SOL    HW228992   5.031   1.585   8.927  0.9597 -0.4412 -0.2162
 9000SOL     OW28993   0.823   7.989   5.649 -0.3234  0.7531 -0.1944
 9000SOL    HW128994   0.907   7.952   5.622 -1.2449 -0.9930 -0.8344
 9000SOL    HW228995   0.787   8.027   5.568 -0.1651  1.4655  0.0693
 9001SOL     OW28996   1.756   2.588   7.682 -0.5835 -0.1051 -0.1538
 9001SOL    HW128997   1.701   2.662   7.658 -2.2085 -1.2010  0.0038
 9001SOL    HW228998   1.729   2.565   7.771 -0.1964 -0.9488 -0.2413
 9002SOL     OW28999   1.930   1.493   0.574 -0.3977 -0.1309  0.0332
 9002SOL    HW129000   2.022   1.467   0.572 -0.5535 -0.7179  0.4898
 9002SOL    HW229001   1.932   1.587   0.590  0.1266 -0.1070 -0.1603
 9003SOL     OW29002   4.212   5.288   8.227  0.5801  0.1812 -0.5666
 9003SOL    HW129003   4.125   5.265   8.262  0.4933  1.4125  0.1062
 9003SOL    HW229004   4.222   5.234   8.149 -0.2883 -0.8487  0.0103
 9004SOL     OW29005   7.256   4.868   3.211  0.0718  0.6979  0.4112
 9004SOL    HW129006   7.260   4.827   3.298  1.1056  1.3637  0.6950
 9004SOL    HW229007   7.265   4.795   3.150  0.9870  0.3784  0.9000
 9005SOL     OW29008   6.933   5.100   7.104 -0.0333  0.3873  0.9193
 9005SOL    HW129009   7.010   5.132   7.056 -0.8974 -1.5786 -2.0791
 9005SOL    HW229010   6.865   5.165   7.087 -0.8634 -1.1043 -2.4113
 9006SOL     OW29011   7.747   0.845   7.077  0.3671 -0.1894  0.7430
 9006SOL    HW129012   7.680   0.913   7.064  0.2180 -0.5616 -0.6432
 9006SOL    HW229013   7.808   0.884   7.140  0.4071  1.3445 -0.1751
 9007SOL     OW29014   5.924   3.972   4.406 -0.1158 -0.7767  0.3534
 9007SOL    HW129015   5.963   4.000   4.324  2.3959 -1.7384  1.1419
 9007SOL    HW229016   5.998   3.951   4.463 -1.7791 -2.0714  2.1910
 9008SOL     OW29017   5.593   5.856   2.608  0.0371 -0.1506 -0.1977
 9008SOL    HW129018   5.667   5.805   2.577  0.7361 -0.5302  1.8897
 9008SOL    HW229019   5.515   5.812   2.573  0.6713 -1.9555  0.5466
 9009SOL     OW29020   1.089   4.974   6.390  0.0494  0.2665  0.1317
 9009SOL    HW129021   1.082   4.881   6.410  3.5323 -0.4062 -1.0466
 9009SOL    HW229022   1.068   4.980   6.297 -0.5097  0.7669  0.2812
 9010SOL     OW29023   8.104   3.045   5.237  0.1783 -0.1602  0.5884
 9010SOL    HW129024   8.014   3.033   5.268 -1.1889  1.4723 -2.2480
 9010SOL    HW229025   8.152   2.970   5.270 -2.2107 -1.0573  2.2805
 9011SOL     OW29026   3.957   0.673   1.713  0.3921  0.4933 -0.3708
 9011SOL    HW129027   3.882   0.622   1.744  1.8010  0.4349  3.4841
 9011SOL    HW229028   3.921   0.759   1.694 -0.6773  0.6375  1.9288
 9012SOL     OW29029   6.843   0.293   6.311  0.2668 -0.4754 -0.4533
 9012SOL    HW129030   6.867   0.294   6.218  1.0873  0.7982 -0.2466
 9012SOL    HW229031   6.791   0.372   6.323  1.3823  0.1499  0.4607
 9013SOL     OW29032   1.950   0.415   8.737  0.2308  0.2882  0.0020
 9013SOL    HW129033   1.891   0.484   8.708 -0.1038 -0.3204 -0.7873
 9013SOL    HW229034   2.035   0.440   8.701  0.1275  0.3257 -0.2153
 9014SOL     OW29035   6.285   8.193   1.074 -0.8561  0.4545  0.3689
 9014SOL    HW129036   6.373   8.181   1.110 -1.3252 -2.0218  0.8426
 9014SOL    HW229037   6.299   8.243   0.993  1.0763 -0.4921  0.0672
 9015SOL     OW29038   1.088   7.392   8.291  0.0848 -0.3587 -0.1461
 9015SOL    HW129039   1.168   7.375   8.241  1.1881 -0.2927  1.5101
 9015SOL    HW229040   1.114   7.458   8.356 -1.6556  0.6097 -0.3704
 9016SOL     OW29041   6.177   5.465   1.958 -0.0375  0.0081  0.3559
 9016SOL    HW129042   6.121   5.455   2.035  0.0143 -2.5721  0.1201
 9016SOL    HW229043   6.244   5.398   1.967  1.1169  0.9212 -0.9996
 9017SOL     OW29044   2.130   2.946   8.214  0.7380 -0.2179 -1.0479
 9017SOL    HW129045   2.170   2.862   8.238 -1.6131 -0.9759  0.5139
 9017SOL    HW229046   2.092   2.931   8.128 -0.9103 -1.2606 -0.1721
 9018SOL     OW29047   4.309   4.069   5.713 -0.3061 -0.1320 -0.1079
 9018SOL    HW129048   4.388   4.121   5.731  0.5749 -1.7053  0.8260
 9018SOL    HW229049   4.328   4.023   5.632 -1.0238  0.8568 -0.8541
 9019SOL     OW29050   4.769   2.167   8.245 -0.0169 -0.2825  0.0852
 9019SOL    HW129051   4.734   2.256   8.245 -0.2359 -0.3336 -1.4733
 9019SOL    HW229052   4.699   2.113   8.207  1.0114 -0.6835 -1.3561
 9020SOL     OW29053   5.956   5.253   1.105 -0.3379 -0.5926 -0.3046
 9020SOL    HW129054   5.974   5.251   1.011 -1.8765  1.5818 -0.7208
 9020SOL    HW229055   6.035   5.292   1.143  0.1376 -1.1322 -0.7238
 9021SOL     OW29056   5.617   6.309   3.648 -0.2416  0.6390 -0.1209
 9021SOL    HW129057   5.702   6.345   3.673 -0.6920  1.6667  0.0092
 9021SOL    HW229058   5.630   6.276   3.559  0.4276  0.2800  0.1053
 9022SOL     OW29059   7.749   0.656   8.873  0.2787  0.1757  0.1689
 9022SOL    HW129060   7.720   0.639   8.963 -1.2875  1.1723 -0.0974
 9022SOL    HW229061   7.722   0.578   8.824  0.3487  0.0045  0.3999
 9023SOL     OW29062   7.130   0.147   8.383 -0.7378  0.0880  0.3055
 9023SOL    HW129063   7.101   0.165   8.473 -0.0348 -1.7407  0.9416
 9023SOL    HW229064   7.055   0.173   8.329 -1.0307  1.5928  1.3545
 9024SOL     OW29065   5.781   7.738   7.821  0.0425 -0.1631 -0.7449
 9024SOL    HW129066   5.764   7.771   7.733 -1.9918 -0.9694 -0.7013
 9024SOL    HW229067   5.752   7.647   7.819 -1.4775  0.2041  1.1064
 9025SOL     OW29068   5.923   7.825   7.225 -0.3175 -0.4488  0.6209
 9025SOL    HW129069   5.928   7.729   7.225  1.0710 -0.5965 -4.1402
 9025SOL    HW229070   5.952   7.851   7.138  0.2865  4.4364  1.9949
 9026SOL     OW29071   3.245   2.464   6.380 -0.0946  0.0362 -0.5926
 9026SOL    HW129072   3.207   2.405   6.315  0.2806  1.0083 -1.7556
 9026SOL    HW229073   3.276   2.408   6.450 -0.3239 -1.0806 -1.3675
 9027SOL     OW29074   0.182   4.839   1.653  0.6487 -0.0650  0.6757
 9027SOL    HW129075   0.251   4.870   1.711  0.8408 -1.6657  1.3573
 9027SOL    HW229076   0.142   4.765   1.700 -1.9906  1.1849  0.6143
 9028SOL     OW29077   6.953   1.661   7.558 -0.3331  0.0981  0.7711
 9028SOL    HW129078   6.924   1.640   7.469 -0.9655 -1.4067  1.2867
 9028SOL    HW229079   6.880   1.711   7.596 -0.1784  0.5074  0.5288
 9029SOL     OW29080   0.177   0.414   8.451 -0.2331  0.0922  0.4288
 9029SOL    HW129081   0.209   0.334   8.410  0.2075  0.0883  0.7690
 9029SOL    HW229082   0.218   0.485   8.401  0.3436  0.0869  0.8817
 9030SOL     OW29083   7.113   5.217   5.248  0.1561  0.2107  0.3775
 9030SOL    HW129084   7.127   5.288   5.311 -0.3951  0.8595 -0.2159
 9030SOL    HW229085   7.188   5.221   5.190 -0.5402  1.2061 -0.4808
 9031SOL     OW29086   6.044   2.381   2.768  0.0422 -0.0263  0.1204
 9031SOL    HW129087   6.052   2.395   2.673 -0.0140  1.1787  0.2845
 9031SOL    HW229088   6.127   2.342   2.794 -0.1606 -0.9188 -0.5104
 9032SOL     OW29089   0.591   0.037   6.966 -0.0272 -0.5374  0.7462
 9032SOL    HW129090   0.559   0.051   6.877 -0.3984  1.8864  1.1867
 9032SOL    HW229091   0.560  -0.050   6.989 -0.3724 -1.0082 -1.3026
 9033SOL     OW29092   6.974   3.607   1.120 -0.1345 -0.4582  0.0195
 9033SOL    HW129093   7.043   3.595   1.186 -0.2609 -1.1641  0.0275
 9033SOL    HW229094   6.949   3.699   1.128  1.3026  0.0124 -0.4646
 9034SOL     OW29095   6.140   8.739   7.584  0.3180  0.0682 -0.3531
 9034SOL    HW129096   6.222   8.786   7.595  0.3238 -0.1232  0.4251
 9034SOL    HW229097   6.148   8.697   7.498  1.3728 -0.6124  0.0579
 9035SOL     OW29098   4.205   5.270   6.426 -0.3227 -0.1050 -0.4899
 9035SOL    HW129099   4.215   5.191   6.374  0.1004  0.5830 -1.4873
 9035SOL    HW229100   4.193   5.239   6.516  1.5851 -1.2592 -0.5882
 9036SOL     OW29101   8.784   4.194   6.887 -0.1760  0.8412 -0.3589
 9036SOL    HW129102   8.813   4.187   6.796  0.5577  3.8708 -0.4550
 9036SOL    HW229103   8.688   4.195   6.882 -0.1564  0.2630 -1.0028
 9037SOL     OW29104   3.784   6.620   4.757 -0.1987  0.2396  0.0450
 9037SOL    HW129105   3.866   6.579   4.787  0.1674  0.8668 -0.0844
 9037SOL    HW229106   3.797   6.632   4.663 -0.2320  0.8164  0.1121
 9038SOL     OW29107   6.637   3.182   8.564  0.3201  0.3360  0.1733
 9038SOL    HW129108   6.634   3.099   8.611  1.1671  1.8004  3.1109
 9038SOL    HW229109   6.546   3.209   8.555  0.0745 -0.6345 -0.3235
 9039SOL     OW29110   7.350   7.940   5.045  0.0021  0.1419  0.0878
 9039SOL    HW129111   7.316   7.895   4.968 -0.4484 -0.9480  0.8886
 9039SOL    HW229112   7.328   7.882   5.118  0.3427  1.1845  1.0477
 9040SOL     OW29113   6.666   5.122   4.072 -0.3840 -0.0029 -0.4236
 9040SOL    HW129114   6.607   5.153   4.141  0.3746  0.3932  0.0593
 9040SOL    HW229115   6.695   5.202   4.028  1.0638 -0.0455  0.3984
 9041SOL     OW29116   5.171   0.538   2.368 -0.1850 -0.0866  0.0634
 9041SOL    HW129117   5.264   0.540   2.342 -0.4972 -0.7761 -1.2040
 9041SOL    HW229118   5.163   0.458   2.420 -0.6113 -1.6469 -2.2489
 9042SOL     OW29119   2.549   7.521   2.245 -0.1326  0.3489  0.7266
 9042SOL    HW129120   2.481   7.470   2.290  0.7181 -0.7523  0.8094
 9042SOL    HW229121   2.624   7.462   2.242  0.5202  1.2086 -0.2042
 9043SOL     OW29122   5.162   2.654   7.332 -0.1766  0.6135 -0.5006
 9043SOL    HW129123   5.119   2.691   7.255 -0.2920  1.9588  0.1767
 9043SOL    HW229124   5.155   2.723   7.398  0.4686 -0.2754  0.5189
 9044SOL     OW29125   3.143   0.926   2.992 -0.4856  0.3904 -0.5394
 9044SOL    HW129126   3.055   0.926   3.029 -0.1827 -0.0192  0.2027
 9044SOL    HW229127   3.149   0.845   2.943  0.4911 -1.1890  1.9756
 9045SOL     OW29128   7.966   0.330   6.868  0.3088 -0.7520  0.5383
 9045SOL    HW129129   7.994   0.420   6.852  0.0554 -1.1535 -2.9486
 9045SOL    HW229130   7.948   0.326   6.962  0.8822  2.6368  0.8916
 9046SOL     OW29131   8.239   5.451   0.684 -0.2504  0.4466  0.1286
 9046SOL    HW129132   8.278   5.533   0.712 -2.9649  1.5342  1.0717
 9046SOL    HW229133   8.231   5.399   0.764 -1.5065  0.6399  0.1539
 9047SOL     OW29134   8.402   1.428   7.537  0.2223 -0.0385 -0.2220
 9047SOL    HW129135   8.370   1.518   7.528 -1.2434 -0.5666 -0.6668
 9047SOL    HW229136   8.366   1.382   7.461  1.8634 -0.7680 -0.5982
 9048SOL     OW29137   3.994   4.015   3.520  0.0533  0.6774  0.3278
 9048SOL    HW129138   3.971   4.107   3.502  0.4451  0.4174 -1.7828
 9048SOL    HW229139   4.056   4.020   3.592 -2.0502  1.8280  2.2035
 9049SOL     OW29140   8.400   5.993   8.525 -0.9686  0.0418  0.2528
 9049SOL    HW129141   8.337   6.048   8.572 -0.9266  0.0865  0.2562
 9049SOL    HW229142   8.468   5.974   8.589 -0.1274  1.3534 -0.2202
 9050SOL     OW29143   4.841   4.990   0.611  0.5191 -0.0625  0.0337
 9050SOL    HW129144   4.876   5.025   0.530  0.1282  0.1554 -0.0436
 9050SOL    HW229145   4.784   5.059   0.645  1.5506  0.3149  1.0867
 9051SOL     OW29146   5.831   7.178   5.372  0.3302  0.3499  0.3621
 9051SOL    HW129147   5.834   7.251   5.311  2.6678 -0.6229 -0.7823
 9051SOL    HW229148   5.786   7.213   5.449  0.9664  2.8323 -0.3302
 9052SOL     OW29149   4.315   3.416   2.224 -0.6341  0.7429  0.2745
 9052SOL    HW129150   4.319   3.511   2.238 -0.5598  0.5557  1.5612
 9052SOL    HW229151   4.260   3.383   2.295 -1.7356 -0.0506 -0.9031
 9053SOL     OW29152   6.297   2.691   6.361 -0.2448 -0.0441 -0.2725
 9053SOL    HW129153   6.282   2.762   6.298 -0.9157 -0.0610 -0.1385
 9053SOL    HW229154   6.213   2.645   6.366 -0.3314  0.1957  0.9252
 9054SOL     OW29155   3.742   5.095   8.884 -0.4684 -0.3075  0.4980
 9054SOL    HW129156   3.784   5.082   8.969 -3.0147 -1.8120  1.6481
 9054SOL    HW229157   3.726   5.006   8.852 -2.5069  0.1602  0.0614
 9055SOL     OW29158   6.281   2.239   2.591  0.6368  0.2692 -0.3933
 9055SOL    HW129159   6.287   2.196   2.676  0.2973  1.9473  0.5333
 9055SOL    HW229160   6.302   2.171   2.527  2.3295 -0.7019  1.1078
 9056SOL     OW29161   3.386   3.328   5.188 -0.0226 -0.2948  0.2218
 9056SOL    HW129162   3.438   3.407   5.202 -1.9688  1.4543 -1.6292
 9056SOL    HW229163   3.356   3.302   5.275  0.1438  1.4031  0.8072
 9057SOL     OW29164   0.775   2.379   4.561 -0.3254  0.2061  0.3288
 9057SOL    HW129165   0.851   2.436   4.571  0.0093 -0.3543  1.1048
 9057SOL    HW229166   0.734   2.407   4.480 -0.1052  1.4834  0.6409
 9058SOL     OW29167   3.089   4.865   3.498  0.1694 -0.4642  0.1251
 9058SOL    HW129168   3.121   4.948   3.462  2.1927 -1.8090 -1.4478
 9058SOL    HW229169   3.035   4.890   3.573  0.7419  2.2472 -0.2633
 9059SOL     OW29170   7.754   1.916   3.841  0.3047 -0.1358  0.6691
 9059SOL    HW129171   7.685   1.971   3.802  2.7584  1.7048 -1.4703
 9059SOL    HW229172   7.721   1.827   3.833 -0.6372  0.3588 -3.2827
 9060SOL     OW29173   6.044   4.966   6.459 -0.2754 -0.5850  0.6152
 9060SOL    HW129174   6.003   4.912   6.391  0.3937 -0.4832  0.1109
 9060SOL    HW229175   5.986   5.041   6.469  1.5104  1.5046 -2.7731
 9061SOL     OW29176   7.634   0.748   4.029 -0.0165  0.0663 -0.4028
 9061SOL    HW129177   7.615   0.763   4.122 -1.4208 -3.9477  0.1503
 9061SOL    HW229178   7.728   0.766   4.021 -0.0331  1.3679  1.5360
 9062SOL     OW29179   5.827   6.425   3.241 -0.5040  0.0689 -0.4312
 9062SOL    HW129180   5.833   6.491   3.310 -0.8417 -2.3180  2.0765
 9062SOL    HW229181   5.750   6.449   3.190  0.2191  2.3575 -0.5331
 9063SOL     OW29182   3.237   0.234   0.315 -0.0029  0.0751  0.4434
 9063SOL    HW129183   3.302   0.164   0.310  2.0940  1.9363  0.1562
 9063SOL    HW229184   3.254   0.288   0.238 -1.2836  1.1483  0.8704
 9064SOL     OW29185   5.601   0.129   8.722  0.3386 -0.3280  0.4218
 9064SOL    HW129186   5.643   0.174   8.796 -0.3499  0.3640  0.4124
 9064SOL    HW229187   5.507   0.135   8.741  0.2387 -2.1875  0.6418
 9065SOL     OW29188   1.826   3.540   3.212 -0.0909  0.1262  0.2541
 9065SOL    HW129189   1.893   3.517   3.147 -0.6694 -0.6441 -0.0740
 9065SOL    HW229190   1.745   3.506   3.176 -0.3867 -0.5398  1.5151
 9066SOL     OW29191   2.014   2.846   4.194  0.3779  0.4244 -0.3308
 9066SOL    HW129192   1.948   2.905   4.157  0.4524  0.1494 -0.9150
 9066SOL    HW229193   2.001   2.852   4.289  0.4446  1.4489 -0.3680
 9067SOL     OW29194   5.349   8.807   3.781 -0.5132 -0.2388 -0.5579
 9067SOL    HW129195   5.401   8.736   3.744  0.3525 -0.0855  0.3567
 9067SOL    HW229196   5.346   8.873   3.711 -0.4578 -0.7293 -1.0315
 9068SOL     OW29197   4.593   1.799   8.280  0.5719  0.3256 -0.2422
 9068SOL    HW129198   4.610   1.858   8.207 -0.2045  2.3310  1.1249
 9068SOL    HW229199   4.681   1.777   8.313  0.8711  2.1455  0.2870
 9069SOL     OW29200   2.185   2.743   8.659  0.6156 -0.5884 -0.1723
 9069SOL    HW129201   2.172   2.727   8.566  2.4216  0.4641 -0.6515
 9069SOL    HW229202   2.260   2.803   8.663  0.7470 -0.8199  1.9682
 9070SOL     OW29203   0.463   6.051   7.074 -0.2226 -0.3186  0.0607
 9070SOL    HW129204   0.397   6.112   7.041  0.3068  1.3095  1.8173
 9070SOL    HW229205   0.504   6.097   7.147 -0.1894 -3.0440  1.9005
 9071SOL     OW29206   5.093   0.091   3.627  0.2631  0.1037  0.1386
 9071SOL    HW129207   5.066   0.026   3.562 -0.9838  0.3595  0.3830
 9071SOL    HW229208   5.188   0.097   3.616 -0.0236  1.0216 -2.4953
 9072SOL     OW29209   4.798   6.727   0.658 -0.7464 -0.0055  0.7482
 9072SOL    HW129210   4.744   6.789   0.609  1.7399  2.6913  1.1144
 9072SOL    HW229211   4.824   6.775   0.737 -0.0195 -2.1670  1.8935
 9073SOL     OW29212   5.856   6.339   1.411 -0.4020 -0.5144 -0.2006
 9073SOL    HW129213   5.951   6.333   1.398 -0.3977  0.2183 -0.5619
 9073SOL    HW229214   5.845   6.409   1.475 -0.7527  0.2513 -1.0804
 9074SOL     OW29215   7.393   5.991   2.043  0.5012  1.2839 -0.2127
 9074SOL    HW129216   7.326   6.028   2.100  1.5878  3.3211 -0.1633
 9074SOL    HW229217   7.431   5.919   2.093 -0.8715  0.8118  0.1923
 9075SOL     OW29218   4.782   1.213   6.214  0.0777 -0.5109  0.3700
 9075SOL    HW129219   4.807   1.143   6.275  1.5956 -0.7931 -0.5346
 9075SOL    HW229220   4.836   1.287   6.239  1.9653 -1.1217 -1.5966
 9076SOL     OW29221   2.059   7.092   0.070 -0.3465  0.4347  0.2160
 9076SOL    HW129222   1.992   7.141   0.023 -1.2330  0.6336  1.6281
 9076SOL    HW229223   2.131   7.155   0.082  0.7258 -0.1520 -2.4418
 9077SOL     OW29224   8.385   6.474   1.860 -0.1133  0.7511 -0.5021
 9077SOL    HW129225   8.443   6.524   1.802  0.7591 -1.2977 -1.4666
 9077SOL    HW229226   8.385   6.525   1.941  2.9209  0.9614 -0.5064
 9078SOL     OW29227   6.134   0.116   1.610  0.2762 -0.2537  0.7652
 9078SOL    HW129228   6.198   0.137   1.542  0.3288 -1.0175  0.5786
 9078SOL    HW229229   6.070   0.188   1.605 -0.4982 -1.0125 -1.0701
 9079SOL     OW29230   5.149   2.181   8.022  0.0955 -0.2698  0.4228
 9079SOL    HW129231   5.071   2.190   7.966  0.3298  2.3559  0.3743
 9079SOL    HW229232   5.113   2.171   8.110 -0.3447  0.5978  0.3635
 9080SOL     OW29233   8.057   3.318   1.281  0.0886  0.2700 -0.2068
 9080SOL    HW129234   8.093   3.231   1.300 -0.7778  0.0433  0.4572
 9080SOL    HW229235   8.003   3.305   1.203 -0.6760  0.0288  0.3520
 9081SOL     OW29236   8.450   8.366   4.857 -0.3650 -0.2079 -0.3697
 9081SOL    HW129237   8.428   8.452   4.894  0.3404 -0.4382  0.6369
 9081SOL    HW229238   8.501   8.323   4.926  1.8242 -0.3164 -1.9288
 9082SOL     OW29239   6.672   8.397   8.728  0.0977 -0.6512 -0.7697
 9082SOL    HW129240   6.684   8.465   8.662 -3.6439  0.1920 -0.7799
 9082SOL    HW229241   6.583   8.365   8.714  0.9830 -4.1409  0.6064
 9083SOL     OW29242   6.077   0.017   1.289  0.5727  0.6949 -0.7021
 9083SOL    HW129243   6.153  -0.039   1.308 -0.0438 -0.8549 -2.3987
 9083SOL    HW229244   6.081   0.086   1.355  1.2119 -1.5169  1.7782
 9084SOL     OW29245   6.163   1.272   8.725  0.1809  1.0121 -0.8129
 9084SOL    HW129246   6.141   1.360   8.758 -2.2286  0.4507 -0.7990
 9084SOL    HW229247   6.134   1.213   8.794 -0.1194  0.0858 -1.7217
 9085SOL     OW29248   1.391   2.184   7.454 -0.8169  0.0704 -0.2407
 9085SOL    HW129249   1.405   2.110   7.394  1.2528  0.3687 -0.2046
 9085SOL    HW229250   1.462   2.176   7.518  0.1310  2.7002 -0.8710
 9086SOL     OW29251   6.191   7.246   0.039  0.1291 -0.2975 -0.9141
 9086SOL    HW129252   6.219   7.334   0.017 -0.4930 -0.6505 -3.3167
 9086SOL    HW229253   6.095   7.250   0.041  0.0215 -1.2341 -2.6828
 9087SOL     OW29254   2.238   7.744   5.196  0.1105 -0.2313 -0.4424
 9087SOL    HW129255   2.244   7.665   5.142 -0.4991 -1.2115  0.8754
 9087SOL    HW229256   2.258   7.714   5.284  0.8346  1.2894 -0.0605
 9088SOL     OW29257   7.114   5.680   3.708 -0.1198  0.6716 -0.1955
 9088SOL    HW129258   7.075   5.627   3.639  0.1918 -0.6658  0.6142
 9088SOL    HW229259   7.047   5.682   3.777  0.3982  0.1894  0.3239
 9089SOL     OW29260   0.714   3.364   6.054 -0.0326  0.3378  0.3367
 9089SOL    HW129261   0.643   3.387   5.995  0.3132 -0.0879 -0.2643
 9089SOL    HW229262   0.671   3.324   6.130 -0.4377  0.1760  0.0252
 9090SOL     OW29263   5.320   2.089   7.315  0.2741 -0.1425  0.4202
 9090SOL    HW129264   5.255   2.153   7.289  0.4421 -0.0844  0.1390
 9090SOL    HW229265   5.275   2.005   7.307  0.1746 -0.0887  0.4101
 9091SOL     OW29266   8.705   8.042   6.143  0.3768 -0.3498 -0.2224
 9091SOL    HW129267   8.772   8.103   6.174  0.8308 -0.1157 -1.6157
 9091SOL    HW229268   8.683   8.073   6.055 -0.2878 -1.4675 -0.4696
 9092SOL     OW29269   5.305   2.453   5.806  0.4296 -0.0874  0.4374
 9092SOL    HW129270   5.309   2.407   5.890  2.0202 -0.3586  0.2342
 9092SOL    HW229271   5.313   2.384   5.741 -0.4983  0.1568  0.0512
 9093SOL     OW29272   2.816   7.808   0.965  0.5628  0.7740 -0.6434
 9093SOL    HW129273   2.873   7.785   0.892  1.0763  0.3851 -0.1259
 9093SOL    HW229274   2.796   7.901   0.952 -0.7889  0.3132 -2.2451
 9094SOL     OW29275   2.049   2.990   5.931 -0.1353 -0.7339  0.4980
 9094SOL    HW129276   2.059   2.956   6.020 -0.7901 -0.8235  0.5404
 9094SOL    HW229277   2.094   2.925   5.876  0.0686 -0.7964  0.7342
 9095SOL     OW29278   3.854   6.063   7.644  0.5037  0.1866  0.3396
 9095SOL    HW129279   3.935   6.016   7.623 -0.5000 -0.6135 -2.1873
 9095SOL    HW229280   3.865   6.149   7.604  1.3472  1.3153  2.8357
 9096SOL     OW29281   2.930   4.810   6.874  0.1165 -0.4179 -0.1695
 9096SOL    HW129282   2.916   4.725   6.915  0.0753 -0.2564  0.1572
 9096SOL    HW229283   2.934   4.792   6.780 -1.5596 -0.5677 -0.2407
 9097SOL     OW29284   6.678   7.341   1.613 -0.3404 -0.6247 -0.3528
 9097SOL    HW129285   6.642   7.344   1.701 -1.4882  1.2411 -0.8186
 9097SOL    HW229286   6.609   7.299   1.561 -0.1635 -0.6469 -0.5723
 9098SOL     OW29287   8.826   1.928   7.289  0.4580 -0.1811  0.2504
 9098SOL    HW129288   8.888   1.980   7.238  0.9570 -0.1205  0.9046
 9098SOL    HW229289   8.878   1.854   7.321 -0.3965 -1.4905 -1.2330
 9099SOL     OW29290   1.037   1.943   3.177 -0.6187 -0.2436  0.2278
 9099SOL    HW129291   0.960   1.887   3.183 -0.8758  0.2425  1.8502
 9099SOL    HW229292   1.010   2.026   3.216  0.0500  0.7309 -1.2653
 9100SOL     OW29293   5.940   7.863   5.795 -0.5679 -0.4785 -0.0278
 9100SOL    HW129294   5.902   7.920   5.728 -0.0326 -0.0692  0.0174
 9100SOL    HW229295   6.021   7.830   5.756  0.5570  0.9620  0.9627
 9101SOL     OW29296   7.481   1.995   6.464 -0.1632  0.4590  0.2435
 9101SOL    HW129297   7.443   2.000   6.376 -0.5943  3.0146  0.5035
 9101SOL    HW229298   7.558   2.052   6.460 -0.1059  0.4908  1.4840
 9102SOL     OW29299   4.129   1.321   6.729 -0.3419  0.1817 -0.9735
 9102SOL    HW129300   4.070   1.246   6.739  0.2894 -0.2004  0.0909
 9102SOL    HW229301   4.209   1.295   6.775 -0.3310  1.7477 -0.0249
 9103SOL     OW29302   7.005   7.359   6.096 -0.1106 -0.0771  0.8268
 9103SOL    HW129303   7.020   7.443   6.052 -0.2431  0.4051  1.6791
 9103SOL    HW229304   6.965   7.383   6.180  0.4062 -0.9584  1.3354
 9104SOL     OW29305   5.376   7.067   1.446 -0.5559 -0.3095 -0.5889
 9104SOL    HW129306   5.313   7.033   1.509 -1.0621 -2.0780 -1.9733
 9104SOL    HW229307   5.329   7.067   1.362  0.5770  0.5357 -1.2561
 9105SOL     OW29308   1.656   8.395   8.176  0.7946  0.0912 -0.2013
 9105SOL    HW129309   1.602   8.432   8.246 -0.3146 -0.5823 -0.6723
 9105SOL    HW229310   1.674   8.305   8.204  2.2134  0.4799  0.2313
 9106SOL     OW29311   0.667   2.699   3.821  0.2266  0.3693  0.3490
 9106SOL    HW129312   0.612   2.711   3.743  1.2002  1.1270 -0.2607
 9106SOL    HW229313   0.606   2.703   3.894 -0.4720  1.9776 -0.2585
 9107SOL     OW29314   5.445   8.144   5.780 -0.3231  0.4656 -0.1540
 9107SOL    HW129315   5.469   8.203   5.852 -2.2450  1.3563 -0.1688
 9107SOL    HW229316   5.350   8.156   5.770 -0.3948 -0.9822 -1.6607
 9108SOL     OW29317   0.478   2.587   5.752 -0.0349 -0.4510  0.4238
 9108SOL    HW129318   0.515   2.500   5.761  0.6639 -0.0915  1.1119
 9108SOL    HW229319   0.540   2.634   5.696  0.0847 -0.1175  0.8336
 9109SOL     OW29320   5.516   2.633   6.281 -0.0159 -0.3591  0.1518
 9109SOL    HW129321   5.577   2.611   6.210  1.0199  0.4352  0.7786
 9109SOL    HW229322   5.491   2.724   6.264  3.3375  1.2584  2.9120
 9110SOL     OW29323   3.383   8.753   0.202 -0.0796 -0.5814  0.1285
 9110SOL    HW129324   3.425   8.792   0.125 -1.8981  0.4900 -0.3693
 9110SOL    HW229325   3.432   8.672   0.217 -0.5625 -1.5919 -3.0645
 9111SOL     OW29326   3.005   4.044   2.727  0.2263  0.1958  0.2563
 9111SOL    HW129327   3.053   4.054   2.645  0.4547 -0.3864  0.3160
 9111SOL    HW229328   3.031   4.121   2.779 -0.5195  0.9749 -0.5007
 9112SOL     OW29329   4.819   2.821   6.446 -0.2457 -0.1712  0.0548
 9112SOL    HW129330   4.852   2.874   6.518  0.3550 -1.7972  1.0427
 9112SOL    HW229331   4.733   2.858   6.426  0.9873  2.4787 -0.7735
 9113SOL     OW29332   2.655   7.913   0.182  0.4490 -0.4617 -0.4101
 9113SOL    HW129333   2.728   7.928   0.123  0.2009  2.7493 -0.0687
 9113SOL    HW229334   2.690   7.931   0.269 -0.5884  0.5806 -0.1866
 9114SOL     OW29335   7.452   6.293   3.375 -0.0265 -0.5448  0.0468
 9114SOL    HW129336   7.509   6.251   3.311  1.3278  2.3481 -0.8444
 9114SOL    HW229337   7.501   6.291   3.457 -0.2916 -1.3171  0.1891
 9115SOL     OW29338   6.706   7.688   5.567 -0.0571  0.5529 -0.1252
 9115SOL    HW129339   6.749   7.740   5.499 -0.3616 -0.4653 -1.1347
 9115SOL    HW229340   6.614   7.688   5.542 -0.0805 -0.3415 -0.0658
 9116SOL     OW29341   4.784   1.191   4.042  0.1323 -0.6257 -0.2525
 9116SOL    HW129342   4.867   1.143   4.033 -0.1445 -1.4791  1.4127
 9116SOL    HW229343   4.762   1.183   4.135 -1.6354 -0.0856 -0.5967
 9117SOL     OW29344   2.561   7.537   1.734  0.1921  0.3668 -0.6249
 9117SOL    HW129345   2.558   7.589   1.815  1.1793 -0.1513 -0.2436
 9117SOL    HW229346   2.476   7.493   1.731  0.9136 -1.3441  1.3281
 9118SOL     OW29347   1.322   4.259   5.628 -0.5486  0.1649  0.4217
 9118SOL    HW129348   1.397   4.227   5.678  0.0128  0.8662  0.0316
 9118SOL    HW229349   1.280   4.322   5.686  0.6072  1.6383 -0.2962
 9119SOL     OW29350   7.564   8.453   1.704 -0.1151  0.0082  0.2761
 9119SOL    HW129351   7.540   8.510   1.630  2.1154 -1.2778 -1.5844
 9119SOL    HW229352   7.581   8.513   1.776 -1.0461  1.4315 -0.6368
 9120SOL     OW29353   5.899   4.906   5.756  0.1167  0.0994  0.1300
 9120SOL    HW129354   5.948   4.945   5.828  0.5584  1.3901 -0.8220
 9120SOL    HW229355   5.957   4.916   5.680 -1.0851  0.5031 -0.7716
 9121SOL     OW29356   7.579   5.173   1.553 -0.3015  0.5332  0.1237
 9121SOL    HW129357   7.527   5.233   1.606 -0.8486 -0.0634  0.2756
 9121SOL    HW229358   7.518   5.141   1.486  0.0592  0.3535 -0.1247
 9122SOL     OW29359   6.508   2.478   6.359 -0.5275  0.9588  0.3528
 9122SOL    HW129360   6.541   2.531   6.286 -1.6241  0.8638 -0.2241
 9122SOL    HW229361   6.417   2.506   6.370 -1.4792 -1.4329 -0.6254
 9123SOL     OW29362   2.919   4.917   6.210  0.1143  0.1946  0.0874
 9123SOL    HW129363   2.986   4.848   6.213  1.0118  0.8610 -2.4308
 9123SOL    HW229364   2.845   4.880   6.258  2.0363 -0.7838  2.5024
 9124SOL     OW29365   3.617   4.697   6.925 -0.6810 -0.1147  0.2948
 9124SOL    HW129366   3.709   4.721   6.917 -0.6426 -0.1804  0.5454
 9124SOL    HW229367   3.610   4.614   6.876 -0.7114  0.1390 -0.1399
 9125SOL     OW29368   4.884   4.986   1.752 -0.6783 -0.1768  0.1370
 9125SOL    HW129369   4.804   4.965   1.704 -0.2692  0.9722 -1.0948
 9125SOL    HW229370   4.884   4.925   1.825 -1.4527 -1.8037 -1.1609
 9126SOL     OW29371   8.161   3.795   7.873  0.0219 -0.0330  0.2394
 9126SOL    HW129372   8.089   3.735   7.891 -0.5010  0.0233 -1.4979
 9126SOL    HW229373   8.232   3.738   7.842  1.3039 -0.2597  3.2346
 9127SOL     OW29374   5.506   4.366   1.465  0.0856 -0.0551  0.1036
 9127SOL    HW129375   5.430   4.343   1.413 -0.3618 -0.5444  0.9533
 9127SOL    HW229376   5.563   4.413   1.404 -1.7057  2.0341 -0.0934
 9128SOL     OW29377   2.534   6.409   4.801  0.3533  0.8662  0.0243
 9128SOL    HW129378   2.533   6.424   4.896  0.6672  1.8418 -0.1144
 9128SOL    HW229379   2.499   6.490   4.764 -1.1155 -0.0247 -0.6476
 9129SOL     OW29380   8.640   1.408   3.042  0.4806  0.0902  0.4703
 9129SOL    HW129381   8.588   1.476   2.998  0.7819  0.2318  0.3255
 9129SOL    HW229382   8.577   1.360   3.095  0.1708  0.1447  0.1598
 9130SOL     OW29383   3.696   4.644   0.325 -0.2341  0.4870  0.3060
 9130SOL    HW129384   3.648   4.652   0.407 -0.7702 -0.0048  0.0474
 9130SOL    HW229385   3.706   4.734   0.294 -4.1150  0.5148 -1.4008
 9131SOL     OW29386   6.111   5.136   2.088  0.3556  0.1136  0.1490
 9131SOL    HW129387   6.166   5.118   2.164  0.1832 -1.4525 -0.0710
 9131SOL    HW229388   6.172   5.156   2.018  0.6832 -1.7748 -0.1370
 9132SOL     OW29389   6.609   2.439   8.447  0.2476 -0.0623 -0.4865
 9132SOL    HW129390   6.642   2.352   8.472 -0.4580  0.1941  1.5206
 9132SOL    HW229391   6.685   2.483   8.410  1.5478 -0.3897  1.6185
 9133SOL     OW29392   3.916   5.680   0.442 -0.3575 -0.2921 -0.1037
 9133SOL    HW129393   3.917   5.776   0.448 -0.0048 -0.3209  0.3101
 9133SOL    HW229394   3.823   5.657   0.443 -0.4585  0.0700 -0.6490
 9134SOL     OW29395   7.182   6.934   1.845 -0.4034 -0.0665 -0.2270
 9134SOL    HW129396   7.162   6.843   1.868  0.4767 -0.5057 -1.1115
 9134SOL    HW229397   7.227   6.969   1.921 -3.1246  0.5070  1.2365
 9135SOL     OW29398   8.091   8.045   0.551  0.7201  0.4792 -0.1414
 9135SOL    HW129399   8.025   8.066   0.484 -1.6384 -1.1785  1.4802
 9135SOL    HW229400   8.085   8.116   0.614  1.4522  0.9798 -0.6190
 9136SOL     OW29401   6.405   5.608   3.602 -0.1585 -0.4337  0.1213
 9136SOL    HW129402   6.388   5.533   3.659  3.6214 -0.3872  1.5710
 9136SOL    HW229403   6.421   5.570   3.516  0.5022 -1.1996  0.5699
 9137SOL     OW29404   5.616   2.253   1.841 -0.6536 -0.4360 -0.0084
 9137SOL    HW129405   5.557   2.328   1.850  0.2156  0.5360 -1.8116
 9137SOL    HW229406   5.609   2.228   1.749 -0.3579 -2.1325  0.3973
 9138SOL     OW29407   6.122   6.511   1.378 -0.5209 -0.1997 -0.8347
 9138SOL    HW129408   6.117   6.588   1.433 -1.8425  0.9444 -2.4458
 9138SOL    HW229409   6.205   6.470   1.401 -0.3922  0.9816  0.9658
 9139SOL     OW29410   0.695   3.371   2.107  0.2268 -0.0298  0.0800
 9139SOL    HW129411   0.711   3.412   2.022  0.4122 -0.2241  0.0196
 9139SOL    HW229412   0.734   3.432   2.170  1.3063 -0.5263 -0.0711
 9140SOL     OW29413   7.145   3.859   2.014 -0.1356  0.6726  0.0129
 9140SOL    HW129414   7.058   3.868   1.975  0.1861  1.1212 -0.6300
 9140SOL    HW229415   7.156   3.937   2.067 -0.7811 -0.1847  1.4738
 9141SOL     OW29416   8.313   0.263   0.544 -0.4839  1.1183 -0.4901
 9141SOL    HW129417   8.376   0.262   0.617 -1.0532  0.9350  0.0044
 9141SOL    HW229418   8.248   0.328   0.569 -1.2184  0.3588 -0.3721
 9142SOL     OW29419   1.455   7.771   6.949 -0.1004  0.2417  0.4978
 9142SOL    HW129420   1.462   7.677   6.967 -0.5762  0.5007  2.1906
 9142SOL    HW229421   1.422   7.776   6.860 -0.4652 -1.2048  0.5337
 9143SOL     OW29422   6.148   0.663   6.349  0.5564 -0.0269  0.0631
 9143SOL    HW129423   6.224   0.710   6.316  0.6882 -0.4153 -0.2001
 9143SOL    HW229424   6.102   0.726   6.404  1.2448  0.1116  0.4944
 9144SOL     OW29425   2.479   2.060   5.894  0.1491  0.5070 -0.2783
 9144SOL    HW129426   2.525   1.981   5.866 -0.8459 -0.2003  0.0232
 9144SOL    HW229427   2.549   2.121   5.919  0.9264 -0.8101  0.9006
 9145SOL     OW29428   6.218   3.095   0.578  0.0428 -0.6108 -0.0842
 9145SOL    HW129429   6.230   3.009   0.537 -0.7459 -0.5715 -0.4268
 9145SOL    HW229430   6.244   3.157   0.510  0.1124 -0.5736 -0.0224
 9146SOL     OW29431   3.571   7.690   4.664 -0.0526  0.0086  0.3060
 9146SOL    HW129432   3.638   7.709   4.598  0.6488  1.0990  1.2844
 9146SOL    HW229433   3.557   7.773   4.709 -4.1624  0.5902 -1.6246
 9147SOL     OW29434   0.547   0.718   3.790 -0.7301  0.3278  0.1241
 9147SOL    HW129435   0.590   0.743   3.871 -0.6883  0.1567  0.1559
 9147SOL    HW229436   0.524   0.800   3.748 -2.3243  0.4516  1.1405
 9148SOL     OW29437   8.458   0.723   8.242 -0.0329 -0.1649 -0.3676
 9148SOL    HW129438   8.413   0.724   8.158  0.2165  0.4393 -0.4984
 9148SOL    HW229439   8.518   0.650   8.236  1.9179  1.4339 -1.7653
 9149SOL     OW29440   5.049   6.202   4.336  0.3482 -0.3160  0.1090
 9149SOL    HW129441   5.096   6.285   4.338  0.9634 -0.6362 -0.5260
 9149SOL    HW229442   5.041   6.177   4.428  1.0706 -0.0535  0.2492
 9150SOL     OW29443   6.881   3.588   6.880 -0.0822 -0.0783 -0.2268
 9150SOL    HW129444   6.930   3.647   6.824  0.8154 -0.2453  0.3576
 9150SOL    HW229445   6.927   3.592   6.965 -1.2765  0.0222  0.4387
 9151SOL     OW29446   2.074   0.594   2.100  0.0279  0.2909  0.3770
 9151SOL    HW129447   2.033   0.537   2.035 -0.8551  1.5322 -0.1838
 9151SOL    HW229448   2.141   0.642   2.051 -0.4239  1.0005  0.4539
 9152SOL     OW29449   0.263   3.986   8.423 -0.3786 -0.5257  0.4388
 9152SOL    HW129450   0.236   3.923   8.357  1.0494  1.0225 -1.7445
 9152SOL    HW229451   0.320   3.937   8.482  0.7230 -1.3099 -1.2251
 9153SOL     OW29452   1.721   5.975   2.989 -0.2610 -0.0458 -0.2178
 9153SOL    HW129453   1.769   6.029   2.925  0.1646  0.0516  0.1770
 9153SOL    HW229454   1.788   5.919   3.028 -0.4978 -0.0259  0.2215
 9154SOL     OW29455   7.814   8.623   0.811 -0.2314  0.0574  0.0245
 9154SOL    HW129456   7.792   8.647   0.721 -0.8868 -1.6130 -0.2850
 9154SOL    HW229457   7.819   8.707   0.857  1.9523  1.1500 -1.9214
 9155SOL     OW29458   4.064   6.657   7.575 -0.0020  0.0527 -0.1520
 9155SOL    HW129459   4.037   6.678   7.485 -0.9547 -2.7617 -0.6278
 9155SOL    HW229460   3.989   6.678   7.629 -0.6976 -1.3499 -0.5269
 9156SOL     OW29461   8.164   1.937   7.554  0.5920  0.2647 -0.2357
 9156SOL    HW129462   8.128   1.999   7.490  1.5936 -0.8265 -1.9465
 9156SOL    HW229463   8.106   1.944   7.629 -0.1070  2.2836 -0.8810
 9157SOL     OW29464   5.980   8.229   1.011  0.1430  0.0197  0.3872
 9157SOL    HW129465   6.074   8.242   1.015  0.8336 -1.2158 -4.7753
 9157SOL    HW229466   5.949   8.296   0.950 -1.9598 -1.0055  0.2337
 9158SOL     OW29467   0.959   2.299   7.397 -0.2680  0.3930  0.0633
 9158SOL    HW129468   0.978   2.274   7.487 -0.3201  2.1874  0.6176
 9158SOL    HW229469   0.960   2.217   7.348  1.1527 -0.4579  1.4346
 9159SOL     OW29470   2.086   5.825   0.062 -0.5010  0.0335 -0.4680
 9159SOL    HW129471   2.128   5.898   0.108 -1.3527 -0.2824  0.8895
 9159SOL    HW229472   2.158   5.781   0.016  0.9816 -1.1276  2.6111
 9160SOL     OW29473   8.605   7.650   8.218 -0.1200 -0.1580  0.1229
 9160SOL    HW129474   8.542   7.722   8.228 -1.1947 -1.1511  0.7236
 9160SOL    HW229475   8.672   7.685   8.159  0.1951  1.8684  1.5751
 9161SOL     OW29476   5.887   4.853   1.558  0.1623  0.1235  0.0501
 9161SOL    HW129477   5.859   4.762   1.567 -2.0690  0.7678  0.1088
 9161SOL    HW229478   5.897   4.866   1.464  0.4593 -0.1502  0.0399
 9162SOL     OW29479   4.567   8.512   4.813 -0.2570 -0.5754 -0.6114
 9162SOL    HW129480   4.533   8.433   4.855  1.0937 -0.8839 -0.0503
 9162SOL    HW229481   4.522   8.584   4.858  0.8971 -0.9125  1.1576
 9163SOL     OW29482   5.101   6.859   6.495 -0.2908  0.2758 -1.0050
 9163SOL    HW129483   5.106   6.954   6.508 -1.6000  0.3341 -0.8277
 9163SOL    HW229484   5.147   6.844   6.413  0.3995  0.9987 -0.7599
 9164SOL     OW29485   2.152   6.981   4.103  1.0671  0.5861 -0.1002
 9164SOL    HW129486   2.127   7.069   4.075 -0.5687  0.9340  2.2115
 9164SOL    HW229487   2.078   6.926   4.079  0.6585  0.4737  1.3094
 9165SOL     OW29488   7.590   7.079   2.576 -0.0370 -0.0103  0.0709
 9165SOL    HW129489   7.519   7.027   2.538  1.4088 -1.3667 -0.9125
 9165SOL    HW229490   7.623   7.132   2.503  0.8226 -0.4049  0.1585
 9166SOL     OW29491   8.195   0.601   4.432 -0.2961  0.7705 -0.2734
 9166SOL    HW129492   8.124   0.548   4.469 -1.0661  0.4287 -2.1346
 9166SOL    HW229493   8.150   0.675   4.390  0.6132  1.6612  0.2819
 9167SOL     OW29494   5.921   7.678   1.066 -0.1822 -0.1794  0.3089
 9167SOL    HW129495   5.848   7.709   1.120 -0.2160 -0.2714  0.3160
 9167SOL    HW229496   5.911   7.583   1.064 -0.9419 -0.0948 -0.9407
 9168SOL     OW29497   5.378   1.794   0.755 -0.8601 -0.1819  0.6531
 9168SOL    HW129498   5.335   1.842   0.825  0.8584  2.0544  0.2615
 9168SOL    HW229499   5.454   1.753   0.796  0.5274  1.6683  0.0929
 9169SOL     OW29500   8.633   4.936   3.011  0.2338 -0.5889  0.2364
 9169SOL    HW129501   8.639   4.846   2.978  1.9967 -0.3722 -0.1270
 9169SOL    HW229502   8.540   4.957   3.006 -0.1100 -2.1279 -0.3987
 9170SOL     OW29503   2.881   1.183   3.867 -0.1219 -0.6580 -0.3660
 9170SOL    HW129504   2.792   1.218   3.879  0.1388  0.7084 -2.0851
 9170SOL    HW229505   2.873   1.124   3.792  0.4957 -0.1740 -0.8200
 9171SOL     OW29506   5.013   1.473   5.923 -0.1613  0.4415  0.0952
 9171SOL    HW129507   5.071   1.426   5.983  0.8179  0.7644 -0.5680
 9171SOL    HW229508   4.969   1.404   5.873  0.2951  0.2013  0.0189
 9172SOL     OW29509   7.583   5.911   6.608  0.0453  0.0750 -0.2109
 9172SOL    HW129510   7.518   5.911   6.679  0.0087 -0.9296 -0.2334
 9172SOL    HW229511   7.668   5.909   6.652  0.0857  1.4679 -0.1802
 9173SOL     OW29512   5.615   4.276   1.100  0.3584  0.2552  0.1937
 9173SOL    HW129513   5.706   4.285   1.074  0.6242 -0.0779  0.9658
 9173SOL    HW229514   5.601   4.346   1.163  0.7886 -1.0790  1.8697
 9174SOL     OW29515   7.234   4.365   4.430 -0.0113  0.4869  0.1736
 9174SOL    HW129516   7.300   4.399   4.491  0.6898  0.8061 -0.7469
 9174SOL    HW229517   7.230   4.271   4.450 -0.0942  0.6612  0.9953
 9175SOL     OW29518   4.732   5.602   0.146 -0.3301 -0.0275 -0.2414
 9175SOL    HW129519   4.672   5.675   0.161  1.5208  1.8273 -1.3088
 9175SOL    HW229520   4.702   5.533   0.205 -2.8389  1.1606  0.0017
 9176SOL     OW29521   3.216   0.334   8.266  0.1875  0.1584 -0.0992
 9176SOL    HW129522   3.215   0.372   8.178 -0.5151  2.2869  0.7819
 9176SOL    HW229523   3.300   0.288   8.272  0.7677  0.9994 -1.4553
 9177SOL     OW29524   5.751   8.480   3.774 -0.1137 -0.0379 -0.8097
 9177SOL    HW129525   5.750   8.536   3.851 -1.6715 -2.2169  0.8746
 9177SOL    HW229526   5.686   8.412   3.792  1.1500 -2.0025 -3.0077
 9178SOL     OW29527   3.566   6.200   8.680 -0.8109 -0.2348  0.5002
 9178SOL    HW129528   3.549   6.170   8.591  0.0817  0.9692 -0.0985
 9178SOL    HW229529   3.490   6.171   8.730 -1.2914 -0.9837 -0.6368
 9179SOL     OW29530   3.472   1.748   7.221  0.3325  0.2582  0.0850
 9179SOL    HW129531   3.481   1.781   7.131 -2.3920  0.4270 -0.2026
 9179SOL    HW229532   3.397   1.794   7.256  0.1952 -1.1965  1.8271
 9180SOL     OW29533   6.093   7.050   8.415  0.6510  0.0821  0.1386
 9180SOL    HW129534   6.048   7.080   8.493 -1.5540 -0.8066 -0.7074
 9180SOL    HW229535   6.082   7.121   8.352  1.3265  0.2821  0.2449
 9181SOL     OW29536   8.696   4.724   1.584  0.6737  0.0103 -0.1221
 9181SOL    HW129537   8.693   4.629   1.573  0.2733 -0.3519  2.4706
 9181SOL    HW229538   8.785   4.748   1.557 -0.1994 -0.5040 -4.0207
 9182SOL     OW29539   3.239   4.300   6.027  0.0672 -0.1099 -0.3785
 9182SOL    HW129540   3.332   4.323   6.037 -0.1931  1.0533 -0.5310
 9182SOL    HW229541   3.205   4.364   5.964 -0.9103 -0.3307 -0.0856
 9183SOL     OW29542   0.022   7.835   6.474 -0.1118  0.0620  0.0641
 9183SOL    HW129543   0.035   7.752   6.519 -0.0301  1.6763  3.3479
 9183SOL    HW229544   0.107   7.878   6.477 -0.1306  0.2941 -1.6736
 9184SOL     OW29545   7.834   0.564   7.091 -0.7251  0.0681 -0.5537
 9184SOL    HW129546   7.798   0.543   7.005  0.5300  1.3615 -1.4384
 9184SOL    HW229547   7.835   0.660   7.093  0.8148  0.0589  0.2288
 9185SOL     OW29548   2.122   7.144   1.904 -0.2167  0.7180 -0.6109
 9185SOL    HW129549   2.135   7.083   1.832  0.3853  1.6601 -1.3278
 9185SOL    HW229550   2.056   7.206   1.872 -0.7500  0.5102  0.0657
 9186SOL     OW29551   5.054   8.227   2.022  0.4251  0.0566 -0.3848
 9186SOL    HW129552   5.099   8.183   2.094  0.6082  0.0581 -0.4964
 9186SOL    HW229553   4.963   8.233   2.050  0.4543 -0.1398 -0.2476
 9187SOL     OW29554   5.325   5.048   2.569  0.0173 -0.0021 -0.3180
 9187SOL    HW129555   5.269   4.981   2.609 -2.3510  1.7323 -0.5284
 9187SOL    HW229556   5.390   4.998   2.519  0.0219 -2.1441  1.6233
 9188SOL     OW29557   1.547   5.896   2.400 -0.0460 -0.0076 -0.0679
 9188SOL    HW129558   1.546   5.802   2.381 -0.1563 -0.1182  0.4772
 9188SOL    HW229559   1.455   5.918   2.416 -0.5176  0.8377 -3.2095
 9189SOL     OW29560   2.215   4.359   1.582 -0.0324  0.7200  0.4813
 9189SOL    HW129561   2.195   4.448   1.552  0.7734  0.8219  0.2205
 9189SOL    HW229562   2.182   4.302   1.512 -1.1968  0.7656  0.9787
 9190SOL     OW29563   5.415   6.580   6.771 -0.4671  0.0988 -0.6292
 9190SOL    HW129564   5.340   6.524   6.756 -1.0331  0.9054 -0.8669
 9190SOL    HW229565   5.430   6.576   6.866 -1.6866  1.0049 -0.3644
 9191SOL     OW29566   5.751   6.423   8.395 -0.2023 -0.0889  0.8158
 9191SOL    HW129567   5.713   6.510   8.397  0.6194  0.2862  0.6452
 9191SOL    HW229568   5.842   6.437   8.370  0.2652 -0.8878  1.9720
 9192SOL     OW29569   1.291   6.928   4.618 -0.1042 -0.4203 -0.4751
 9192SOL    HW129570   1.284   6.931   4.714  0.3094 -0.4296 -0.4410
 9192SOL    HW229571   1.378   6.965   4.600 -0.6690  0.7538 -0.9174
 9193SOL     OW29572   0.164   3.836   1.163  0.3609  0.1774  0.1383
 9193SOL    HW129573   0.113   3.801   1.090  0.0576  1.9977 -0.5693
 9193SOL    HW229574   0.119   3.916   1.188  2.1124  1.1345  0.3729
 9194SOL     OW29575   4.204   1.706   5.148  0.2073 -0.3856  0.0569
 9194SOL    HW129576   4.252   1.751   5.079  0.7078 -2.3938 -0.9731
 9194SOL    HW229577   4.251   1.728   5.228 -0.0644  1.5324 -0.2499
 9195SOL     OW29578   0.490   7.633   4.669 -0.1119 -0.3052 -0.0998
 9195SOL    HW129579   0.575   7.667   4.641  0.7079 -1.2371  1.1822
 9195SOL    HW229580   0.490   7.542   4.641 -1.4551  0.1268 -1.6666
 9196SOL     OW29581   4.164   0.531   6.905  0.4885  0.0594  0.5802
 9196SOL    HW129582   4.172   0.443   6.942 -1.4005 -0.1381  0.6239
 9196SOL    HW229583   4.107   0.577   6.967  0.6070  0.9846  0.0114
 9197SOL     OW29584   7.126   3.058   4.645  0.3567 -0.0800 -0.6827
 9197SOL    HW129585   7.067   2.998   4.691 -1.9368  0.4347 -2.7518
 9197SOL    HW229586   7.200   3.003   4.620  0.6825 -0.8443  1.6346
 9198SOL     OW29587   6.479   5.683   7.144  0.2388 -0.2830 -0.7942
 9198SOL    HW129588   6.449   5.675   7.053  1.1802  1.1002 -1.2580
 9198SOL    HW229589   6.568   5.649   7.143  1.2234  2.0843 -1.0132
 9199SOL     OW29590   7.837   6.062   6.381  0.0326 -0.4771  0.1406
 9199SOL    HW129591   7.750   6.027   6.365 -0.2489  0.8822 -1.5604
 9199SOL    HW229592   7.889   6.036   6.305  0.5831  0.3161  0.2234
 9200SOL     OW29593   5.637   7.862   2.002  0.4010 -0.5819 -0.5684
 9200SOL    HW129594   5.706   7.837   1.940  2.5310  0.0183  1.4200
 9200SOL    HW229595   5.651   7.956   2.017  0.1010 -0.7559  0.9513
 9201SOL     OW29596   3.010   7.823   3.089 -0.0198 -0.3505  0.0312
 9201SOL    HW129597   3.075   7.776   3.036 -0.4938 -0.7092 -0.2372
 9201SOL    HW229598   2.942   7.758   3.107  0.1883 -0.2741  1.1902
 9202SOL     OW29599   8.579   2.171   4.213 -0.3298  0.3954 -0.1263
 9202SOL    HW129600   8.520   2.107   4.173  0.3357 -0.0876 -0.3460
 9202SOL    HW229601   8.520   2.234   4.256 -1.0493  0.7296 -1.5384
 9203SOL     OW29602   5.498   2.148   0.857  0.0381  0.0633 -0.0368
 9203SOL    HW129603   5.563   2.092   0.813  0.5961 -0.0661  0.9214
 9203SOL    HW229604   5.472   2.098   0.934  1.5796  1.6361  1.6122
 9204SOL     OW29605   8.621   5.012   8.384 -0.3162  0.3541 -0.2475
 9204SOL    HW129606   8.715   4.995   8.391 -0.3241  0.5816  0.4351
 9204SOL    HW229607   8.588   5.003   8.473 -0.9068  0.4994 -0.4460
 9205SOL     OW29608   4.725   5.517   8.588  0.3257 -0.2352  0.5234
 9205SOL    HW129609   4.705   5.501   8.680 -2.1077  0.3536  0.1622
 9205SOL    HW229610   4.743   5.430   8.552 -0.3428 -0.6806  1.2274
 9206SOL     OW29611   0.492   7.215   5.594 -0.2752 -0.4196 -0.3807
 9206SOL    HW129612   0.503   7.185   5.504 -2.1987  0.1539 -0.8639
 9206SOL    HW229613   0.469   7.136   5.643  0.4688 -0.6816 -0.4471
 9207SOL     OW29614   1.742   4.490   2.743  0.3907  0.3586 -0.4767
 9207SOL    HW129615   1.820   4.439   2.764 -0.0116  0.5394  1.6773
 9207SOL    HW229616   1.742   4.561   2.807 -1.7361  0.1419 -0.1655
 9208SOL     OW29617   2.505   7.095   0.648 -0.1261 -0.3312  0.3909
 9208SOL    HW129618   2.567   7.059   0.585 -0.1713  2.2678 -1.2825
 9208SOL    HW229619   2.558   7.154   0.702 -0.7776  0.5024  0.1426
 9209SOL     OW29620   1.970   6.778   0.544 -0.3741  0.4951 -0.7204
 9209SOL    HW129621   2.019   6.798   0.624  0.3241  0.9069 -1.2361
 9209SOL    HW229622   1.998   6.846   0.482 -0.1064 -0.4321 -1.6434
 9210SOL     OW29623   8.269   1.208   7.395  0.0169 -0.4328  0.1628
 9210SOL    HW129624   8.197   1.169   7.446 -0.3281  0.2703  0.2272
 9210SOL    HW229625   8.348   1.166   7.429 -0.1941  0.1229  1.4023
 9211SOL     OW29626   6.422   5.546   0.630  0.5218 -0.3636 -0.0445
 9211SOL    HW129627   6.439   5.594   0.549  1.5881 -1.5230 -0.5313
 9211SOL    HW229628   6.473   5.593   0.697 -0.2236  0.4916 -0.0586
 9212SOL     OW29629   6.248   7.803   0.222  0.2555  0.0735  0.6495
 9212SOL    HW129630   6.209   7.735   0.277  1.1601 -0.3663  0.7504
 9212SOL    HW229631   6.342   7.793   0.233  0.4134  1.1361  0.4090
 9213SOL     OW29632   1.045   3.376   2.193  0.1084  0.3408 -0.0336
 9213SOL    HW129633   1.093   3.414   2.119 -0.9342  1.2333 -0.2854
 9213SOL    HW229634   0.989   3.309   2.154  0.6536 -0.2456  0.1710
 9214SOL     OW29635   2.921   0.836   6.712  0.0697  0.2655  0.0666
 9214SOL    HW129636   2.849   0.864   6.656  0.0323  1.4235  0.6551
 9214SOL    HW229637   2.920   0.899   6.784  1.4410  0.0726  0.2680
 9215SOL     OW29638   8.145   8.396   6.852  0.0093  0.0223 -0.4563
 9215SOL    HW129639   8.224   8.413   6.904 -0.6329 -0.6164  0.7707
 9215SOL    HW229640   8.122   8.306   6.872 -0.7809  0.0533 -1.1666
 9216SOL     OW29641   6.637   8.473   4.316 -0.2557 -0.4790  0.7662
 9216SOL    HW129642   6.573   8.528   4.271  0.9352 -0.0158 -0.4175
 9216SOL    HW229643   6.586   8.400   4.349 -1.5233  0.2582  0.5175
 9217SOL     OW29644   0.444   1.984   0.870 -0.5870  0.6323 -0.5364
 9217SOL    HW129645   0.361   1.944   0.895 -0.1874  0.3957  0.4825
 9217SOL    HW229646   0.420   2.053   0.808 -1.1514 -2.2928 -3.8656
 9218SOL     OW29647   0.716   0.773   5.710  0.2205  0.3545 -0.4315
 9218SOL    HW129648   0.727   0.861   5.744  1.9856 -0.5449  1.5395
 9218SOL    HW229649   0.647   0.734   5.764  0.7183 -0.0386 -0.0739
 9219SOL     OW29650   5.538   7.321   5.965  0.3308  0.4459  0.4151
 9219SOL    HW129651   5.602   7.383   5.931  0.6104  0.3626  0.7830
 9219SOL    HW229652   5.578   7.235   5.949 -0.6561  0.2849 -1.3407
 9220SOL     OW29653   1.632   3.007   5.589  0.5661  0.3233  0.1044
 9220SOL    HW129654   1.701   3.040   5.646  1.4969  0.3708 -1.0263
 9220SOL    HW229655   1.576   2.955   5.648  2.1417 -0.5897  0.8582
 9221SOL     OW29656   6.749   8.432   1.791 -0.0230  0.2397  0.1287
 9221SOL    HW129657   6.683   8.366   1.813  0.6167 -0.0885  1.1294
 9221SOL    HW229658   6.823   8.381   1.757 -0.2733  0.6055 -1.0135
 9222SOL     OW29659   1.414   7.545   8.281  0.0697 -0.2016 -0.2780
 9222SOL    HW129660   1.417   7.489   8.204  1.0340 -0.6967  0.0924
 9222SOL    HW229661   1.380   7.488   8.350  0.9004 -0.3072  0.0630
 9223SOL     OW29662   0.809   1.546   7.444 -0.3530  0.4349 -0.0021
 9223SOL    HW129663   0.844   1.598   7.371 -0.2743  0.2394 -0.1048
 9223SOL    HW229664   0.862   1.573   7.519 -0.7148  0.9467  0.0749
 9224SOL     OW29665   1.897   0.196   6.079  0.4744 -0.4857  0.1211
 9224SOL    HW129666   1.900   0.128   6.146 -1.8783 -1.7971 -0.9762
 9224SOL    HW229667   1.961   0.168   6.013  0.5115 -0.9029  0.3306
 9225SOL     OW29668   4.607   2.005   8.092  0.1298 -0.3620 -0.2466
 9225SOL    HW129669   4.515   2.009   8.066  0.2007  0.3773 -0.4112
 9225SOL    HW229670   4.656   2.002   8.010  0.2699 -0.2927 -0.1662
 9226SOL     OW29671   3.364   0.719   7.478 -0.0502  0.2956  0.7729
 9226SOL    HW129672   3.293   0.672   7.434  2.3360 -0.1471 -3.1410
 9226SOL    HW229673   3.432   0.652   7.491  0.5935  1.1734  2.2251
 9227SOL     OW29674   0.794   7.799   3.625  0.2165 -0.5981  0.4804
 9227SOL    HW129675   0.731   7.867   3.650 -1.5342 -1.6295 -0.8624
 9227SOL    HW229676   0.872   7.820   3.675 -0.8988  1.2492  1.6039
 9228SOL     OW29677   2.311   7.917   6.437  0.2229  0.0682  0.1666
 9228SOL    HW129678   2.307   7.828   6.471  2.1734  0.1195  0.5898
 9228SOL    HW229679   2.227   7.956   6.463 -0.6317 -1.5905  0.0402
 9229SOL     OW29680   2.769   6.804   1.837  0.5383 -0.0124 -0.5153
 9229SOL    HW129681   2.799   6.894   1.838  1.2528 -0.2470  0.4730
 9229SOL    HW229682   2.846   6.752   1.860 -0.0733 -0.8013 -0.1790
 9230SOL     OW29683   3.241   5.739   2.975 -0.0453  0.7026 -0.3304
 9230SOL    HW129684   3.205   5.721   3.062  0.2546 -1.1339 -0.5589
 9230SOL    HW229685   3.283   5.658   2.949  0.6321  1.5064 -1.8421
 9231SOL     OW29686   6.911   6.816   3.484  0.0194  0.6709 -0.3281
 9231SOL    HW129687   6.905   6.721   3.497 -2.1006  0.6523 -1.1111
 9231SOL    HW229688   6.994   6.840   3.526 -0.8168 -1.0508  2.6769
 9232SOL     OW29689   0.169   7.998   3.599  0.2180  0.0044  0.1809
 9232SOL    HW129690   0.136   7.908   3.590  1.6657 -0.4833 -0.4708
 9232SOL    HW229691   0.098   8.044   3.644 -0.9448 -1.2301 -0.2867
 9233SOL     OW29692   2.913   3.333   8.144  0.1274 -0.1501 -0.3980
 9233SOL    HW129693   3.004   3.313   8.165 -0.2001  0.3590  1.7571
 9233SOL    HW229694   2.912   3.345   8.049  2.4498  0.6287 -0.3809
 9234SOL     OW29695   4.348   2.319   3.839  0.2193  0.1214  0.5805
 9234SOL    HW129696   4.315   2.237   3.802 -1.2039  0.8882  0.0991
 9234SOL    HW229697   4.297   2.331   3.919 -0.4250  1.1213  0.0339
 9235SOL     OW29698   3.609   1.783   6.704  0.2212 -0.1047 -0.2340
 9235SOL    HW129699   3.538   1.719   6.694  1.2617 -0.9479 -3.5062
 9235SOL    HW229700   3.681   1.747   6.653  1.1170  3.2793 -1.6851
 9236SOL     OW29701   4.710   1.828   4.808 -0.3201  0.0861 -0.2551
 9236SOL    HW129702   4.804   1.812   4.804 -0.0356  1.7980 -1.4474
 9236SOL    HW229703   4.685   1.802   4.896  1.4747  0.6323  0.4558
 9237SOL     OW29704   7.378   4.070   1.836 -0.0892  1.4869  0.6140
 9237SOL    HW129705   7.410   4.002   1.894  0.9107  2.5971  1.4157
 9237SOL    HW229706   7.322   4.024   1.774 -0.3053  0.1112  1.7761
 9238SOL     OW29707   3.961   1.261   4.129 -0.1651 -0.1831 -0.3112
 9238SOL    HW129708   3.912   1.219   4.199  0.7764  2.8801  2.4686
 9238SOL    HW229709   4.019   1.193   4.095 -1.3749 -2.0663  1.2174
 9239SOL     OW29710   0.087   8.163   7.336  0.5674 -0.4122  0.1639
 9239SOL    HW129711   0.021   8.113   7.289  0.3506  0.6672 -0.7214
 9239SOL    HW229712   0.055   8.167   7.426 -1.8458  2.0745 -0.6877
 9240SOL     OW29713   7.142   3.443   8.769 -0.3137 -0.0815  0.2055
 9240SOL    HW129714   7.079   3.390   8.721  1.0284 -1.0839 -0.5078
 9240SOL    HW229715   7.220   3.387   8.777  1.3529  1.9034 -1.0274
 9241SOL     OW29716   2.344   5.451   4.956  0.3192  0.9069  0.1405
 9241SOL    HW129717   2.398   5.423   4.882  0.1332 -0.3525  0.4651
 9241SOL    HW229718   2.377   5.401   5.030 -0.9801  0.4433  0.4366
 9242SOL     OW29719   7.223   4.141   8.446  0.2503  0.4359 -0.3159
 9242SOL    HW129720   7.241   4.079   8.517 -1.3538  0.9118  0.5638
 9242SOL    HW229721   7.310   4.165   8.413  0.9354 -1.8156 -0.3207
 9243SOL     OW29722   4.089   0.609   1.992  0.3980 -0.4244  0.1918
 9243SOL    HW129723   4.056   0.597   1.903  0.1595 -2.2938  0.4837
 9243SOL    HW229724   4.077   0.702   2.010  0.4066 -0.0243 -1.7008
 9244SOL     OW29725   1.051   2.408   7.954 -0.3143 -0.3562  0.2538
 9244SOL    HW129726   1.030   2.467   8.025 -1.1169 -1.1770  0.7159
 9244SOL    HW229727   1.005   2.327   7.975  0.1610 -0.9081 -0.7383
 9245SOL     OW29728   7.844   4.155   6.433  0.6740 -0.4034  0.4966
 9245SOL    HW129729   7.811   4.204   6.509  0.6616 -0.1188  0.3075
 9245SOL    HW229730   7.861   4.222   6.367 -1.2699 -0.8226 -0.4924
 9246SOL     OW29731   3.717   2.190   6.532 -0.4300  0.4047 -0.3223
 9246SOL    HW129732   3.667   2.139   6.596 -0.9994  0.1500 -0.9639
 9246SOL    HW229733   3.652   2.241   6.485 -0.0135  0.5700 -0.7223
 9247SOL     OW29734   8.565   8.341   4.057 -0.3868 -0.6781  0.1839
 9247SOL    HW129735   8.492   8.298   4.013  0.7992 -1.8740 -0.7086
 9247SOL    HW229736   8.640   8.285   4.038  0.7652  0.4999  1.0971
 9248SOL     OW29737   7.697   4.120   5.183 -0.4033  0.7539  0.1772
 9248SOL    HW129738   7.713   4.105   5.090 -1.4912 -0.8666  0.1963
 9248SOL    HW229739   7.697   4.215   5.193  0.2955  0.9424 -1.3599
 9249SOL     OW29740   3.973   5.590   8.579  0.3198 -0.0084  0.3988
 9249SOL    HW129741   3.882   5.613   8.561  0.0823 -1.0472  0.2016
 9249SOL    HW229742   4.018   5.597   8.495  0.1919 -0.5046  0.2874
 9250SOL     OW29743   8.194   0.998   3.491 -0.0847 -0.1116 -0.6846
 9250SOL    HW129744   8.235   1.015   3.576 -0.0535  0.3875 -0.7968
 9250SOL    HW229745   8.101   1.014   3.507 -0.0022  0.6307 -0.9027
 9251SOL     OW29746   5.729   3.384   4.683  0.0416  0.0806 -0.2266
 9251SOL    HW129747   5.799   3.424   4.735  0.6629  1.9486 -2.3446
 9251SOL    HW229748   5.775   3.330   4.618 -0.6363 -0.9229  0.1036
 9252SOL     OW29749   0.238   1.148   8.567 -0.1936  0.1492  0.3042
 9252SOL    HW129750   0.292   1.156   8.646  0.4356  1.7096 -0.2366
 9252SOL    HW229751   0.218   1.239   8.543 -0.1728 -0.2856 -1.4650
 9253SOL     OW29752   2.479   6.786   5.717 -0.4459 -0.2930  0.4466
 9253SOL    HW129753   2.536   6.751   5.650 -0.8293  0.7812 -0.4705
 9253SOL    HW229754   2.482   6.881   5.704 -0.0687 -0.0083  2.3245
 9254SOL     OW29755   1.279   3.653   6.022 -0.3575 -0.3495 -0.0817
 9254SOL    HW129756   1.369   3.683   6.004  0.4405 -1.8329  1.1528
 9254SOL    HW229757   1.229   3.682   5.946  1.3895 -0.4037 -1.3368
 9255SOL     OW29758   5.281   6.046   2.063 -0.4804  0.1656 -0.0320
 9255SOL    HW129759   5.355   6.049   2.003 -0.5507  1.4254 -0.0876
 9255SOL    HW229760   5.287   5.960   2.105  0.8629  0.1547 -0.2069
 9256SOL     OW29761   3.927   7.597   5.810  0.0321 -0.1866  0.1629
 9256SOL    HW129762   3.976   7.514   5.812 -0.6031 -0.5676  0.3569
 9256SOL    HW229763   3.836   7.570   5.818 -0.1138  0.5978  1.3313
 9257SOL     OW29764   0.479   1.046   1.149 -0.8385  0.0449  0.0541
 9257SOL    HW129765   0.524   1.053   1.064 -0.8314 -0.7055 -0.0096
 9257SOL    HW229766   0.518   0.970   1.190 -0.9374  0.3295  0.6854
 9258SOL     OW29767   7.754   6.957   4.913  0.6410 -0.3603  0.0473
 9258SOL    HW129768   7.843   6.990   4.901  0.7377 -0.4234  0.5569
 9258SOL    HW229769   7.743   6.890   4.845  2.2598 -2.9399  2.0995
 9259SOL     OW29770   6.713   4.613   7.395  1.1236  0.5237  0.1919
 9259SOL    HW129771   6.802   4.640   7.421  0.4250  2.3922  0.8141
 9259SOL    HW229772   6.724   4.576   7.307  2.4344  1.3904 -0.0434
 9260SOL     OW29773   7.207   1.310   8.365  0.3588 -0.6108  0.8592
 9260SOL    HW129774   7.210   1.406   8.359 -0.3326 -0.6156  0.2355
 9260SOL    HW229775   7.226   1.280   8.276  1.2340 -1.0797  1.1968
 9261SOL     OW29776   8.836   8.555   3.439  0.5364 -0.1009  0.2725
 9261SOL    HW129777   8.782   8.632   3.457  0.5838 -0.1754  0.7353
 9261SOL    HW229778   8.799   8.486   3.493  0.9286 -0.2209  0.3937
 9262SOL     OW29779   6.716   3.322   3.092 -0.4855  0.0786  0.0416
 9262SOL    HW129780   6.701   3.272   3.172  0.4475  1.8915  1.4325
 9262SOL    HW229781   6.688   3.264   3.022 -0.1308 -2.0807  1.5811
 9263SOL     OW29782   3.988   2.953   5.021  0.2664  0.5178 -0.0107
 9263SOL    HW129783   4.078   2.936   4.990  0.0964 -0.8965  0.2267
 9263SOL    HW229784   3.932   2.913   4.955 -0.1573 -0.0087  0.6570
 9264SOL     OW29785   6.007   6.999   5.482 -0.2642 -0.7546 -0.6578
 9264SOL    HW129786   5.951   7.065   5.442 -0.5903 -0.1191  0.7681
 9264SOL    HW229787   5.948   6.948   5.538  0.4608 -0.4056  0.4663
 9265SOL     OW29788   1.846   6.682   2.909 -0.0691  0.1659 -0.2449
 9265SOL    HW129789   1.859   6.590   2.932 -0.9533  0.2924  0.8228
 9265SOL    HW229790   1.763   6.684   2.862  0.7449  0.2085 -1.7570
 9266SOL     OW29791   6.982   3.306   7.498  0.4440  0.0763 -0.2866
 9266SOL    HW129792   6.912   3.371   7.493  0.6095  0.2309 -0.6443
 9266SOL    HW229793   7.038   3.338   7.569  0.0446 -0.1577  0.1331
 9267SOL     OW29794   7.678   4.824   7.278  0.2537  0.5564 -0.0797
 9267SOL    HW129795   7.763   4.845   7.241  0.8089  0.2010  0.9361
 9267SOL    HW229796   7.615   4.870   7.223  0.9970 -0.2233 -1.6534
 9268SOL     OW29797   6.134   0.187   7.823  0.0374 -0.0743  0.6720
 9268SOL    HW129798   6.063   0.207   7.885  0.2892 -0.2990  1.0387
 9268SOL    HW229799   6.212   0.178   7.879  0.3877  0.3538  0.2525
 9269SOL     OW29800   8.751   6.489   7.351 -0.4064  0.2107  0.6115
 9269SOL    HW129801   8.775   6.421   7.414 -3.0477 -1.5763 -0.1013
 9269SOL    HW229802   8.725   6.564   7.405  1.3897  0.2654  1.4569
 9270SOL     OW29803   5.230   6.925   2.088 -0.3934 -0.1884  0.2052
 9270SOL    HW129804   5.243   6.848   2.144 -0.1713 -0.0730  0.3129
 9270SOL    HW229805   5.316   6.967   2.085 -0.4173 -0.1646 -0.1811
 9271SOL     OW29806   3.369   5.972   2.997  0.2975 -0.2094  0.2559
 9271SOL    HW129807   3.323   5.888   2.993 -0.2915  0.0423  1.2976
 9271SOL    HW229808   3.448   5.959   2.945  0.3430 -1.4934  0.6185
 9272SOL     OW29809   7.768   7.349   7.462  0.3304  0.4166 -0.1806
 9272SOL    HW129810   7.708   7.420   7.437 -1.5783 -1.3019 -0.7725
 9272SOL    HW229811   7.805   7.377   7.546 -1.2388  1.6135  0.1533
 9273SOL     OW29812   8.168   0.881   8.841  0.3834 -0.2145 -0.2846
 9273SOL    HW129813   8.212   0.796   8.841 -1.4691 -1.2353 -1.1914
 9273SOL    HW229814   8.099   0.873   8.775 -1.4457  1.1260  1.3436
 9274SOL     OW29815   5.883   7.405   6.060 -0.7476  0.0798 -0.0444
 9274SOL    HW129816   5.872   7.438   6.149 -2.7328  1.8384 -0.8443
 9274SOL    HW229817   5.952   7.460   6.023  0.3052 -0.8681  0.4879
 9275SOL     OW29818   2.026   7.331   4.201  0.3541 -0.0213 -0.1835
 9275SOL    HW129819   2.102   7.341   4.259 -1.4017 -1.6173  2.6046
 9275SOL    HW229820   1.962   7.285   4.254 -0.6572 -3.7738 -4.1540
 9276SOL     OW29821   0.134   8.575   4.498  0.4000 -0.4318  0.0880
 9276SOL    HW129822   0.104   8.666   4.487  1.5025  0.1772  1.6902
 9276SOL    HW229823   0.181   8.556   4.417 -1.4681 -0.2766 -1.0818
 9277SOL     OW29824   2.375   5.815   2.605 -0.3042  0.0860  0.4427
 9277SOL    HW129825   2.437   5.841   2.537 -1.3469  0.2058 -0.4776
 9277SOL    HW229826   2.399   5.870   2.681 -0.6846  1.7580 -0.5949
 9278SOL     OW29827   1.352   6.521   0.965 -0.7405  0.5415 -0.2247
 9278SOL    HW129828   1.317   6.462   1.032 -0.2263  0.3499 -0.1204
 9278SOL    HW229829   1.411   6.579   1.012 -1.0528  0.9812 -0.3701
 9279SOL     OW29830   0.678   8.258   0.022 -0.0948 -0.4297  0.6083
 9279SOL    HW129831   0.660   8.164   0.029 -0.6325 -0.3453  0.3471
 9279SOL    HW229832   0.635   8.296   0.098 -1.0114 -0.2319 -0.0026
 9280SOL     OW29833   3.972   2.793   3.599 -0.0272  0.1409 -0.4318
 9280SOL    HW129834   3.999   2.705   3.571  0.0479 -0.2434  0.8005
 9280SOL    HW229835   4.019   2.807   3.681 -1.1014  0.7783  0.0857
 9281SOL     OW29836   0.755   3.058   2.731  0.2403  0.4290  0.3873
 9281SOL    HW129837   0.729   3.140   2.773 -0.4047 -0.1787  1.1937
 9281SOL    HW229838   0.686   3.041   2.667  0.0516  0.1985  0.6518
 9282SOL     OW29839   6.522   2.625   2.219  0.1597  0.2638 -0.1304
 9282SOL    HW129840   6.561   2.697   2.269 -0.2246  0.0190  0.5374
 9282SOL    HW229841   6.507   2.662   2.132 -1.1270  1.3943  0.5271
 9283SOL     OW29842   8.891   1.417   6.617  0.1137  0.7818 -0.4377
 9283SOL    HW129843   8.892   1.429   6.522 -2.2992  1.3078 -0.4531
 9283SOL    HW229844   8.817   1.359   6.634  0.9294  0.1163  1.0911
 9284SOL     OW29845   7.762   0.553   7.377 -0.4180  0.4317 -0.1572
 9284SOL    HW129846   7.805   0.628   7.419 -1.2452  0.2435  1.0707
 9284SOL    HW229847   7.788   0.559   7.285  2.9353 -0.1877  0.6395
 9285SOL     OW29848   7.022   4.732   5.497 -0.6009  0.2384 -0.3527
 9285SOL    HW129849   7.074   4.694   5.426  0.6565  0.1272  0.5999
 9285SOL    HW229850   7.006   4.658   5.556  0.3897  0.7938  0.6493
 9286SOL     OW29851   4.282   0.210   8.612  0.1339  0.6850  0.5053
 9286SOL    HW129852   4.269   0.264   8.535 -1.2373 -0.0579  0.1790
 9286SOL    HW229853   4.200   0.162   8.622  0.5714  0.1761  1.9635
 9287SOL     OW29854   0.137   6.019   0.682 -0.0639 -0.3453  0.7856
 9287SOL    HW129855   0.209   5.998   0.622  0.0331  0.8187  0.4650
 9287SOL    HW229856   0.175   6.080   0.745 -0.2066 -1.4489  1.9711
 9288SOL     OW29857   4.639   1.370   0.555  1.3350 -0.7854  0.4084
 9288SOL    HW129858   4.641   1.319   0.474  2.2112  0.2130 -0.2167
 9288SOL    HW229859   4.679   1.454   0.532  0.0029  0.1673  1.4375
 9289SOL     OW29860   8.705   3.646   1.722  0.2718 -0.1044  0.1501
 9289SOL    HW129861   8.742   3.612   1.803 -0.5965  1.2124  1.1443
 9289SOL    HW229862   8.613   3.619   1.725 -0.0444  0.9112  0.2008
 9290SOL     OW29863   2.199   0.178   5.043  0.0629  0.1051  0.2728
 9290SOL    HW129864   2.278   0.196   5.093  0.7866 -0.8249 -0.4816
 9290SOL    HW229865   2.144   0.128   5.103 -0.4651  1.6913  1.1781
 9291SOL     OW29866   5.300   8.327   7.466 -0.5634  0.2695 -0.8496
 9291SOL    HW129867   5.244   8.270   7.414 -2.0258  0.2446  0.6835
 9291SOL    HW229868   5.385   8.323   7.422 -1.1903 -1.3776 -2.0073
 9292SOL     OW29869   8.518   7.185   1.007 -0.3006  0.3627  0.3431
 9292SOL    HW129870   8.505   7.200   0.914 -1.4662  0.1999  0.4736
 9292SOL    HW229871   8.456   7.243   1.051 -0.8327 -0.6534  0.9721
 9293SOL     OW29872   0.757   5.051   4.876 -0.1325 -0.2501 -0.0570
 9293SOL    HW129873   0.714   5.134   4.895 -1.0590 -0.8277  0.4218
 9293SOL    HW229874   0.768   5.009   4.961 -1.3166 -1.4040 -0.4415
 9294SOL     OW29875   8.775   5.661   8.203  0.2113  0.2002 -0.3617
 9294SOL    HW129876   8.795   5.569   8.187 -1.6868 -0.3882  0.3579
 9294SOL    HW229877   8.754   5.696   8.116  1.7244  0.1881 -0.7519
 9295SOL     OW29878   0.412   1.977   3.765  0.7462  0.1494  0.1517
 9295SOL    HW129879   0.395   1.917   3.693  0.1991  0.0424  0.3640
 9295SOL    HW229880   0.507   1.972   3.779  0.7705 -0.2892 -0.1568
 9296SOL     OW29881   5.207   6.114   4.661  0.1526 -0.6466 -0.6746
 9296SOL    HW129882   5.286   6.168   4.649 -0.0224  0.0725  1.0371
 9296SOL    HW229883   5.233   6.050   4.728 -1.1872  0.7986  1.3700
 9297SOL     OW29884   0.154   7.433   8.636 -0.4983  0.3801  0.4308
 9297SOL    HW129885   0.177   7.398   8.722 -1.7483  1.2486  1.1594
 9297SOL    HW229886   0.191   7.521   8.635  1.2721 -0.3226 -0.7647
 9298SOL     OW29887   1.132   3.448   6.064 -0.1694 -0.6063 -0.9023
 9298SOL    HW129888   1.181   3.524   6.097  0.1575 -1.4710  0.6924
 9298SOL    HW229889   1.200   3.387   6.034 -0.4134 -0.4776 -1.7378
 9299SOL     OW29890   5.410   8.043   4.591 -0.2001 -0.0077  0.4409
 9299SOL    HW129891   5.378   8.065   4.503  0.6903  1.4554  0.4557
 9299SOL    HW229892   5.484   8.102   4.605  0.0607 -0.6547  1.9353
 9300SOL     OW29893   5.983   2.797   1.884  0.1804 -0.0618  0.6978
 9300SOL    HW129894   5.952   2.731   1.945 -0.7116  0.0431  0.3799
 9300SOL    HW229895   6.026   2.747   1.814  0.2621 -0.2517  0.8849
 9301SOL     OW29896   7.155   6.212   6.052  0.1751 -0.4840  0.2144
 9301SOL    HW129897   7.064   6.205   6.080 -0.1861  1.9583 -0.0684
 9301SOL    HW229898   7.151   6.263   5.971  1.8246  0.6634  0.7948
 9302SOL     OW29899   7.174   4.696   5.786  0.2332 -0.1992  0.3989
 9302SOL    HW129900   7.230   4.676   5.712 -2.1439  0.8232 -1.8271
 9302SOL    HW229901   7.140   4.612   5.815  2.1338 -0.7345  1.2193
 9303SOL     OW29902   0.385   3.495   1.129  0.1577 -0.3658 -0.0433
 9303SOL    HW129903   0.314   3.433   1.147  0.2507 -0.8297 -1.1903
 9303SOL    HW229904   0.342   3.569   1.086  0.0785  0.2911  1.1341
 9304SOL     OW29905   2.563   2.425   2.390 -0.3888  0.1578  0.7208
 9304SOL    HW129906   2.550   2.362   2.461 -1.0181  1.5864  1.9049
 9304SOL    HW229907   2.600   2.502   2.432  0.7317  0.4693 -0.7768
 9305SOL     OW29908   8.852   7.286   7.261 -0.8177 -0.1467 -0.5932
 9305SOL    HW129909   8.931   7.338   7.276 -0.6984 -0.2606 -0.8269
 9305SOL    HW229910   8.783   7.333   7.309 -0.3137 -0.8734  0.9147
 9306SOL     OW29911   7.762   7.508   6.971  0.1671 -0.4694  0.0962
 9306SOL    HW129912   7.798   7.565   7.039 -0.7261  1.1300 -0.7244
 9306SOL    HW229913   7.745   7.566   6.897 -4.4029 -0.8966  0.4851
 9307SOL     OW29914   7.497   2.183   0.311 -0.1284 -0.5120  0.1954
 9307SOL    HW129915   7.523   2.247   0.244  0.5320 -2.9262 -2.0312
 9307SOL    HW229916   7.441   2.232   0.371  0.6418  2.2166 -1.1531
 9308SOL     OW29917   3.489   7.373   1.101 -0.3578  0.2601 -0.4112
 9308SOL    HW129918   3.442   7.452   1.074 -1.2027  0.2122  0.8173
 9308SOL    HW229919   3.572   7.404   1.135  0.9883  0.2863 -3.4087
 9309SOL     OW29920   2.595   1.830   2.086 -0.9539  0.2503 -0.0486
 9309SOL    HW129921   2.505   1.838   2.057  0.3714 -0.3734 -5.3445
 9309SOL    HW229922   2.606   1.737   2.106 -1.2877  0.2240  0.0165
 9310SOL     OW29923   0.178   8.088   3.922 -0.2576 -0.8095  0.8276
 9310SOL    HW129924   0.110   8.117   3.862 -0.9149 -0.6227  1.6537
 9310SOL    HW229925   0.229   8.167   3.940 -0.0712 -0.8616  0.5372
 9311SOL     OW29926   3.037   2.894   3.546 -0.2264 -0.7226  0.3223
 9311SOL    HW129927   3.097   2.919   3.475 -0.6441  1.2106  0.6130
 9311SOL    HW229928   3.026   2.799   3.534  2.4479 -1.0844 -0.0690
 9312SOL     OW29929   0.964   1.623   2.119 -0.3100  0.1965 -0.3695
 9312SOL    HW129930   0.881   1.642   2.163  0.0215  1.2599 -0.1555
 9312SOL    HW229931   1.030   1.664   2.175  0.1129  1.6875 -1.8608
 9313SOL     OW29932   2.952   3.823   3.072 -0.2636 -0.4206  0.2301
 9313SOL    HW129933   2.889   3.893   3.089 -0.2663 -0.4827  0.4880
 9313SOL    HW229934   2.971   3.787   3.159 -0.6552 -1.0819  0.0552
 9314SOL     OW29935   7.057   4.495   4.779  0.4869  0.3166 -0.5482
 9314SOL    HW129936   6.962   4.496   4.767 -0.0367 -2.2334  2.2279
 9314SOL    HW229937   7.091   4.539   4.701 -2.8522 -0.3127 -2.5826
 9315SOL     OW29938   7.430   5.229   0.728  0.1730  0.4307 -0.1182
 9315SOL    HW129939   7.368   5.173   0.775 -0.5377  0.9085 -0.4751
 9315SOL    HW229940   7.416   5.208   0.636 -0.1186  1.2221 -0.2558
 9316SOL     OW29941   6.805   5.412   5.751  0.0281  0.6774 -0.5331
 9316SOL    HW129942   6.764   5.462   5.680  0.0526  1.4962  0.0157
 9316SOL    HW229943   6.890   5.452   5.763  0.1137  0.3992 -0.1862
 9317SOL     OW29944   5.090   3.352   2.644  0.4303  0.2368  0.5251
 9317SOL    HW129945   5.084   3.323   2.735  1.7486 -1.2557  0.1830
 9317SOL    HW229946   5.179   3.386   2.636  0.3354  0.3295 -0.2115
 9318SOL     OW29947   4.998   2.879   7.759 -0.3290  0.0667  0.1276
 9318SOL    HW129948   4.986   2.820   7.834  0.5677  1.1094  1.1227
 9318SOL    HW229949   5.011   2.965   7.798 -1.1356  0.8635 -1.2884
 9319SOL     OW29950   1.692   3.175   6.448 -0.1751 -0.3336 -0.0132
 9319SOL    HW129951   1.661   3.265   6.462 -2.1677 -1.1326  1.0574
 9319SOL    HW229952   1.691   3.136   6.535  1.4040 -1.2279 -0.3477
 9320SOL     OW29953   3.390   3.064   2.571 -0.0813  0.5437 -1.1530
 9320SOL    HW129954   3.307   3.041   2.530  0.5487 -1.0623 -1.5842
 9320SOL    HW229955   3.425   2.982   2.605 -0.8059  1.7654  3.2565
 9321SOL     OW29956   4.909   4.931   7.248 -0.7906 -0.1284  0.0988
 9321SOL    HW129957   4.993   4.885   7.252 -0.4609  0.5443  2.2852
 9321SOL    HW229958   4.845   4.862   7.232  0.0747 -0.7745 -0.7285
 9322SOL     OW29959   7.244   7.750   7.347 -0.3285  0.2889 -0.5374
 9322SOL    HW129960   7.194   7.803   7.409 -0.9133  0.1273 -0.8569
 9322SOL    HW229961   7.253   7.665   7.389 -2.0955 -0.3346 -1.2784
 9323SOL     OW29962   0.731   0.453   4.875  0.9491 -0.3860 -0.1005
 9323SOL    HW129963   0.809   0.502   4.847  0.7027  0.1709  0.1673
 9323SOL    HW229964   0.754   0.416   4.960  1.0065 -0.4153 -0.1295
 9324SOL     OW29965   8.380   4.928   7.628  0.3925 -0.4781 -0.2444
 9324SOL    HW129966   8.471   4.952   7.608  0.5495 -0.6811  0.2157
 9324SOL    HW229967   8.380   4.832   7.624 -0.1200 -0.4427 -1.5995
 9325SOL     OW29968   6.542   6.808   3.345 -0.2282  0.3400 -0.3203
 9325SOL    HW129969   6.468   6.866   3.328 -1.1935 -1.0701 -1.1327
 9325SOL    HW229970   6.528   6.778   3.435 -1.7628 -1.3685 -1.0557
 9326SOL     OW29971   6.863   7.851   5.408 -0.5058  0.1127  0.2003
 9326SOL    HW129972   6.837   7.863   5.317  1.4363 -0.7989 -0.5510
 9326SOL    HW229973   6.926   7.921   5.424  0.3307 -0.6405  0.3057
 9327SOL     OW29974   4.737   5.912   3.710  0.0631 -0.8185  0.0956
 9327SOL    HW129975   4.822   5.958   3.709  0.7221 -1.9701  0.9435
 9327SOL    HW229976   4.685   5.960   3.774 -0.3159  0.5187 -1.1605
 9328SOL     OW29977   8.392   4.899   2.468 -0.2363 -0.2570  0.3992
 9328SOL    HW129978   8.339   4.831   2.426  2.1348 -1.0123 -1.5724
 9328SOL    HW229979   8.338   4.978   2.462 -2.5448 -1.6293  1.6535
 9329SOL     OW29980   1.683   5.460   6.094 -0.0893  0.1323 -0.5862
 9329SOL    HW129981   1.600   5.448   6.140 -0.0091  0.5056 -0.3400
 9329SOL    HW229982   1.711   5.371   6.071 -0.5262  0.0014 -0.6193
 9330SOL     OW29983   0.498   6.032   4.364  0.3778  0.3322  0.0061
 9330SOL    HW129984   0.573   6.009   4.418 -0.5492  2.2905  2.2721
 9330SOL    HW229985   0.525   6.111   4.318  0.6295 -0.5053 -1.3444
 9331SOL     OW29986   4.682   2.389   5.360 -0.0371 -0.2002 -0.1208
 9331SOL    HW129987   4.614   2.456   5.365  1.1266  1.2153 -2.0928
 9331SOL    HW229988   4.681   2.348   5.446 -1.1123  2.0402  1.0187
 9332SOL     OW29989   4.202   0.037   0.570  0.5780  0.6579 -0.1118
 9332SOL    HW129990   4.230   0.128   0.557 -0.1730  0.5113 -3.7118
 9332SOL    HW229991   4.279  -0.015   0.550  0.0952  0.4810 -1.6590
 9333SOL     OW29992   4.760   3.020   8.501  0.2159  0.5573  0.4368
 9333SOL    HW129993   4.799   3.070   8.430 -0.9216  0.3589 -0.3562
 9333SOL    HW229994   4.733   2.937   8.460  1.2413 -0.3360  1.5160
 9334SOL     OW29995   7.950   2.780   6.664 -0.5982  0.1542  0.2883
 9334SOL    HW129996   7.900   2.855   6.630 -1.1727 -0.2560  0.2087
 9334SOL    HW229997   7.966   2.725   6.588 -2.0340 -0.8521  0.6655
 9335SOL     OW29998   2.315   1.458   3.869 -0.8985  0.2471 -0.6744
 9335SOL    HW129999   2.258   1.407   3.927 -0.9414  0.1976 -0.7594
 9335SOL    HW230000   2.270   1.456   3.784 -0.4629 -0.3153 -0.8980
 9336SOL     OW30001   6.811   4.057   1.517 -0.0611 -0.1498  0.0618
 9336SOL    HW130002   6.853   3.978   1.551 -1.2817 -0.8936 -0.1135
 9336SOL    HW230003   6.756   4.088   1.589  0.2566  0.4428  0.0574
 9337SOL     OW30004   1.887   8.209   6.213  0.3151  0.5371  0.0277
 9337SOL    HW130005   1.962   8.151   6.196 -1.1867 -2.4878  2.6046
 9337SOL    HW230006   1.833   8.202   6.134  0.9301 -0.3526 -0.3325
 9338SOL     OW30007   2.511   1.694   2.356 -0.3944 -0.3363  0.0260
 9338SOL    HW130008   2.536   1.602   2.364 -1.9405 -0.7425  0.6814
 9338SOL    HW230009   2.531   1.732   2.442  0.7630  0.1093 -0.4157
 9339SOL     OW30010   4.174   1.504   2.422 -0.1460 -0.2030 -0.0366
 9339SOL    HW130011   4.229   1.429   2.397 -0.9214 -0.0033 -2.5835
 9339SOL    HW230012   4.106   1.466   2.477  0.0388 -1.2159 -0.4725
 9340SOL     OW30013   5.989   3.613   6.793 -0.1477 -0.4031  0.4668
 9340SOL    HW130014   6.065   3.631   6.849 -0.8969  0.0333  1.3619
 9340SOL    HW230015   5.976   3.518   6.800 -0.1087 -0.3794  0.8613
 9341SOL     OW30016   6.607   0.454   6.692 -0.1582 -0.7747  0.0382
 9341SOL    HW130017   6.692   0.496   6.702 -0.4522 -0.1699  0.0588
 9341SOL    HW230018   6.555   0.517   6.642 -1.2860 -0.1388  1.8902
 9342SOL     OW30019   3.629   6.995   5.341 -0.1049 -0.4305 -0.0347
 9342SOL    HW130020   3.708   7.047   5.335 -0.5284  0.0689 -1.6918
 9342SOL    HW230021   3.581   7.013   5.260 -2.3866  0.0468  1.3294
 9343SOL     OW30022   4.341   0.976   4.611 -0.1155 -0.2105 -0.7901
 9343SOL    HW130023   4.420   1.029   4.598 -0.4851  0.0426 -2.1015
 9343SOL    HW230024   4.269   1.039   4.607 -0.4051 -0.4081  0.6202
 9344SOL     OW30025   4.635   1.394   7.901  0.1060  0.9055 -0.4601
 9344SOL    HW130026   4.578   1.443   7.841 -1.3089  1.5743  1.3303
 9344SOL    HW230027   4.575   1.352   7.962  1.3432 -2.0293 -1.0713
 9345SOL     OW30028   1.662   5.997   8.240 -0.2264  0.1724 -0.1641
 9345SOL    HW130029   1.578   5.951   8.230 -0.1675  0.0043  0.0869
 9345SOL    HW230030   1.709   5.980   8.159 -0.2941 -0.0306 -0.1613
 9346SOL     OW30031   3.992   8.325   0.852  0.6042 -0.0337 -0.4109
 9346SOL    HW130032   3.947   8.264   0.909  3.0087 -0.6843  0.9550
 9346SOL    HW230033   3.954   8.310   0.765 -1.2616 -0.9602  0.5170
 9347SOL     OW30034   6.544   7.659   4.751 -0.7222 -0.1773 -0.1153
 9347SOL    HW130035   6.589   7.675   4.668  0.4938  0.3058  0.6032
 9347SOL    HW230036   6.615   7.647   4.814 -1.6281 -1.0571  0.7663
 9348SOL     OW30037   5.648   6.543   7.679 -0.1315  0.1186 -0.3160
 9348SOL    HW130038   5.691   6.475   7.730  0.9980  0.1102 -1.2393
 9348SOL    HW230039   5.560   6.509   7.664  0.3317 -1.0340 -0.5450
 9349SOL     OW30040   4.011   8.736   2.073 -0.2008  0.1389  0.7111
 9349SOL    HW130041   4.051   8.786   2.143 -1.7169  1.3710  0.7546
 9349SOL    HW230042   4.079   8.674   2.046  0.5501 -0.1222  2.9779
 9350SOL     OW30043   6.203   8.735   8.740  0.1274 -0.3641 -0.5614
 9350SOL    HW130044   6.260   8.742   8.663  0.3237  1.2717 -0.3039
 9350SOL    HW230045   6.144   8.663   8.719  0.3060 -0.0863 -2.1611
 9351SOL     OW30046   7.671   3.980   2.873 -0.1185 -0.0817  0.0420
 9351SOL    HW130047   7.707   3.997   2.961  0.3989 -0.5592 -0.0683
 9351SOL    HW230048   7.670   3.884   2.866 -0.9986 -0.0609 -0.1364
 9352SOL     OW30049   1.080   0.354   7.921 -0.3549 -0.2171  0.1190
 9352SOL    HW130050   1.158   0.302   7.938 -0.6207 -0.5474  0.3341
 9352SOL    HW230051   1.113   0.436   7.884  0.1788  0.2424  1.5822
 9353SOL     OW30052   3.918   1.721   5.054  0.7618  0.7389 -0.4292
 9353SOL    HW130053   3.932   1.794   4.994  2.4506  0.3799 -0.5317
 9353SOL    HW230054   4.007   1.694   5.080  0.1254  0.5823  1.8550
 9354SOL     OW30055   6.699   0.859   4.306 -0.5090  0.0755  0.0208
 9354SOL    HW130056   6.680   0.926   4.240 -0.5566 -0.4513 -0.5038
 9354SOL    HW230057   6.654   0.890   4.385  0.5231  1.3124  0.1491
 9355SOL     OW30058   7.209   1.835   1.264 -0.2508 -0.7199 -0.8831
 9355SOL    HW130059   7.205   1.812   1.171 -0.8178 -1.0428 -0.7801
 9355SOL    HW230060   7.175   1.758   1.309  1.0754 -1.0128 -0.3364
 9356SOL     OW30061   1.218   6.677   2.875 -0.2731 -0.4824 -0.1246
 9356SOL    HW130062   1.156   6.679   2.948 -0.9741  3.3379 -0.6032
 9356SOL    HW230063   1.291   6.731   2.903 -1.2234  2.3764 -2.5604
 9357SOL     OW30064   6.870   7.866   3.440  0.1163 -0.0472  0.1247
 9357SOL    HW130065   6.933   7.814   3.490  1.1445  0.1301 -0.9563
 9357SOL    HW230066   6.920   7.902   3.367 -0.8599  1.4506  0.1410
 9358SOL     OW30067   4.457   4.344   0.068 -0.1607  0.0698 -0.5738
 9358SOL    HW130068   4.536   4.357   0.016  0.9422 -3.8345 -0.1690
 9358SOL    HW230069   4.392   4.311   0.006 -0.2590 -0.2827 -0.2927
 9359SOL     OW30070   6.083   5.535   6.164 -0.4565  0.1013  0.1140
 9359SOL    HW130071   6.012   5.558   6.103  0.5324  1.4470 -0.5936
 9359SOL    HW230072   6.069   5.593   6.239  0.2253  0.7924 -0.2865
 9360SOL     OW30073   0.686   3.683   1.499 -0.1434 -0.4600  0.5093
 9360SOL    HW130074   0.603   3.636   1.503 -0.3305 -0.3232 -1.2312
 9360SOL    HW230075   0.662   3.775   1.516 -0.1938 -0.5505  0.9534
 9361SOL     OW30076   4.789   4.489   2.156  0.0709  0.4700  0.5543
 9361SOL    HW130077   4.841   4.442   2.222  0.7699  1.0537  0.4340
 9361SOL    HW230078   4.699   4.460   2.172  0.2530  0.4300  1.6242
 9362SOL     OW30079   7.512   5.867   0.432  0.2207  0.1991  0.7890
 9362SOL    HW130080   7.568   5.796   0.464  1.2158 -0.3222 -1.8590
 9362SOL    HW230081   7.571   5.942   0.424 -0.4330  0.8612  1.8357
 9363SOL     OW30082   3.004   3.975   3.790 -0.2497 -0.2607  0.0920
 9363SOL    HW130083   3.100   3.972   3.793 -0.2134  0.1289 -0.5017
 9363SOL    HW230084   2.984   4.068   3.776 -0.6840 -0.4757 -0.7624
 9364SOL     OW30085   4.127   7.771   0.893 -0.5776 -0.6170  0.2709
 9364SOL    HW130086   4.102   7.862   0.880  1.7859  0.0118 -0.4060
 9364SOL    HW230087   4.106   7.727   0.811  0.9250  0.0356 -0.5103
 9365SOL     OW30088   2.230   0.468   8.638  0.2218  0.1522  0.3685
 9365SOL    HW130089   2.319   0.434   8.642  0.3578  0.4506  0.0090
 9365SOL    HW230090   2.241   0.564   8.636 -0.1709  0.2633  1.9359
 9366SOL     OW30091   0.691   5.413   4.636  0.1968  0.1781  0.0356
 9366SOL    HW130092   0.679   5.349   4.565 -1.5293 -0.8910  1.2093
 9366SOL    HW230093   0.643   5.490   4.607 -0.9237 -0.4291  0.2210
 9367SOL     OW30094   1.577   8.244   4.987  0.7316 -0.1883 -0.0679
 9367SOL    HW130095   1.584   8.149   4.987 -3.7571 -0.8393 -2.6182
 9367SOL    HW230096   1.487   8.261   5.015  0.9913  3.1945 -0.8596
 9368SOL     OW30097   2.948   6.770   3.666  0.1075  0.2695 -0.2590
 9368SOL    HW130098   3.019   6.815   3.712  1.3930 -0.7241 -1.1868
 9368SOL    HW230099   2.907   6.839   3.613 -0.4514  1.1075  1.2200
 9369SOL     OW30100   0.473   5.488   7.513 -0.1437  0.1210  0.0763
 9369SOL    HW130101   0.461   5.399   7.479  1.9061  0.0047 -0.4576
 9369SOL    HW230102   0.539   5.478   7.582  0.9721  1.3687 -0.7640
 9370SOL     OW30103   3.337   0.489   5.453 -0.7329 -0.2517  0.0139
 9370SOL    HW130104   3.296   0.403   5.446  0.1066 -0.5100 -2.3895
 9370SOL    HW230105   3.326   0.513   5.545 -1.9300 -2.4385  0.5011
 9371SOL     OW30106   6.426   3.544   0.306 -0.0682 -0.4370 -0.5275
 9371SOL    HW130107   6.505   3.510   0.347  0.4411 -0.4110 -1.4650
 9371SOL    HW230108   6.399   3.477   0.244 -0.8179 -0.4672 -0.1884
 9372SOL     OW30109   1.839   1.757   1.391  0.3277 -0.0661 -0.1346
 9372SOL    HW130110   1.806   1.833   1.438  0.5025 -0.3292  0.4177
 9372SOL    HW230111   1.819   1.683   1.448 -0.5218 -0.5285 -1.0078
 9373SOL     OW30112   8.244   4.406   3.440  0.0709  0.2835 -0.2869
 9373SOL    HW130113   8.203   4.324   3.413  0.4359  0.6954 -2.2873
 9373SOL    HW230114   8.299   4.383   3.514  0.0239 -1.2552 -0.7028
 9374SOL     OW30115   8.335   4.329   3.047  0.1690 -0.0909  0.3250
 9374SOL    HW130116   8.388   4.278   2.986 -0.2709 -0.5534  0.3193
 9374SOL    HW230117   8.335   4.417   3.011 -1.0164 -0.5841 -0.9739
 9375SOL     OW30118   1.590   1.348   5.828 -0.2974  0.4991  0.1314
 9375SOL    HW130119   1.504   1.318   5.798 -1.8111  3.1592  1.4680
 9375SOL    HW230120   1.632   1.381   5.748 -1.5941  1.5064 -0.1763
 9376SOL     OW30121   4.352   6.232   4.297  0.3638  0.1047 -0.2127
 9376SOL    HW130122   4.268   6.187   4.290 -0.3145  1.5078 -1.5791
 9376SOL    HW230123   4.359   6.284   4.217  2.1677  0.6505  0.2466
 9377SOL     OW30124   0.640   8.783   5.128  0.3208  0.5680  0.6277
 9377SOL    HW130125   0.647   8.805   5.221 -0.2371  0.8755  0.6019
 9377SOL    HW230126   0.629   8.867   5.085  1.1028  0.4730  0.2208
 9378SOL     OW30127   6.172   2.776   7.980 -0.2456 -0.6859 -0.3951
 9378SOL    HW130128   6.086   2.818   7.985 -0.2079 -0.7043  0.4094
 9378SOL    HW230129   6.161   2.706   7.915 -1.3365 -1.8560  0.9899
 9379SOL     OW30130   1.047   1.232   0.590  0.5604 -0.4069  0.1381
 9379SOL    HW130131   1.118   1.280   0.547  1.5060 -1.4926  0.4577
 9379SOL    HW230132   1.019   1.168   0.525 -0.8988  0.7065 -0.3953
 9380SOL     OW30133   8.853   8.092   1.935  0.4076  0.5387 -0.1035
 9380SOL    HW130134   8.865   7.999   1.953 -0.3984  0.7549  1.8132
 9380SOL    HW230135   8.784   8.095   1.868 -0.0069 -0.2228  0.2785
 9381SOL     OW30136   4.762   3.024   1.475  0.0062 -0.1226  0.6914
 9381SOL    HW130137   4.802   2.952   1.523  1.4092  0.9383  1.1516
 9381SOL    HW230138   4.669   3.000   1.469  0.1842 -1.2659  2.0978
 9382SOL     OW30139   4.668   0.708   7.931  0.5105  0.2468 -0.5664
 9382SOL    HW130140   4.592   0.722   7.874  0.6949  1.2220 -0.5819
 9382SOL    HW230141   4.643   0.749   8.014  0.7216 -0.1079 -0.3275
 9383SOL     OW30142   6.513   8.762   1.134  0.0750 -0.4619  0.1292
 9383SOL    HW130143   6.525   8.745   1.041 -1.2675  1.8259 -0.5566
 9383SOL    HW230144   6.596   8.736   1.174  1.2196 -0.1941 -1.9075
 9384SOL     OW30145   3.716   0.082   0.454  0.2356 -0.4997 -0.3888
 9384SOL    HW130146   3.697   0.110   0.544 -0.6979 -0.9632 -0.4317
 9384SOL    HW230147   3.804   0.116   0.437  1.1483 -1.8722  1.3054
 9385SOL     OW30148   8.075   4.200   5.439 -0.0185 -0.1491  0.0749
 9385SOL    HW130149   8.116   4.221   5.523  0.1571 -0.8873  0.1836
 9385SOL    HW230150   8.018   4.125   5.458  2.0950 -2.1476 -0.9741
 9386SOL     OW30151   1.817   3.858   3.536 -0.1252  0.0348  0.4431
 9386SOL    HW130152   1.911   3.842   3.535 -0.0561  0.4357 -0.3280
 9386SOL    HW230153   1.778   3.771   3.538  0.2559 -0.1377  0.5333
 9387SOL     OW30154   0.793   1.790   3.026 -0.4750  0.1546  0.1471
 9387SOL    HW130155   0.825   1.802   2.937  0.2770  0.0964  0.4021
 9387SOL    HW230156   0.697   1.791   3.018 -0.4168  0.8144 -0.5672
 9388SOL     OW30157   2.400   1.767   7.452 -0.3882 -0.6308 -0.6841
 9388SOL    HW130158   2.382   1.677   7.477 -0.3173 -0.2044  1.0844
 9388SOL    HW230159   2.489   1.766   7.417 -1.3036 -1.6386 -3.1656
 9389SOL     OW30160   6.410   5.836   5.732  0.8415 -0.0478  0.2474
 9389SOL    HW130161   6.437   5.766   5.791  1.3002  0.2327  0.3759
 9389SOL    HW230162   6.347   5.794   5.673  0.9870 -0.5250  0.4222
 9390SOL     OW30163   8.633   8.069   4.027  0.6222  0.0324 -0.3152
 9390SOL    HW130164   8.654   8.113   4.109 -1.5917 -1.6499  1.2615
 9390SOL    HW230165   8.682   7.986   4.031  1.3255  0.3840 -1.2176
 9391SOL     OW30166   1.008   7.595   5.218 -0.6428  0.2636 -0.2548
 9391SOL    HW130167   0.943   7.530   5.192 -0.6947  0.5320 -0.7906
 9391SOL    HW230168   0.957   7.668   5.253 -0.5648 -0.2793  1.0779
 9392SOL     OW30169   0.896   0.028   6.040  0.0762  0.5599  0.3585
 9392SOL    HW130170   0.891   0.118   6.008  1.2757  1.0050  1.3940
 9392SOL    HW230171   0.852   0.030   6.125  1.5749  0.5470  1.1490
 9393SOL     OW30172   4.392   3.968   2.251  0.2118 -0.6540 -0.2062
 9393SOL    HW130173   4.298   3.967   2.267  0.5335 -3.5594  2.3538
 9393SOL    HW230174   4.403   4.032   2.180 -3.7514 -0.9137 -1.3223
 9394SOL     OW30175   0.631   4.956   8.255 -0.4158  0.0827  0.2402
 9394SOL    HW130176   0.700   4.893   8.236 -0.1410  0.4312  0.0609
 9394SOL    HW230177   0.638   4.972   8.350 -0.3902 -0.0457  0.2594
 9395SOL     OW30178   8.698   3.160   6.930  0.5076  0.2043 -0.0928
 9395SOL    HW130179   8.696   3.227   6.862  0.7135 -0.0073 -0.3073
 9395SOL    HW230180   8.707   3.208   7.012  3.9337  0.3371 -0.4239
 9396SOL     OW30181   5.431   5.430   0.541 -0.0323  0.1448  0.1937
 9396SOL    HW130182   5.419   5.519   0.509  0.5821 -0.5086 -2.0936
 9396SOL    HW230183   5.342   5.399   0.561 -0.2288  1.2966  1.2088
 9397SOL     OW30184   8.147   2.919   3.458 -0.4004  0.1966 -0.1954
 9397SOL    HW130185   8.121   2.932   3.549  0.1637  1.1333 -0.1535
 9397SOL    HW230186   8.120   2.999   3.413 -0.1272  0.0002 -0.7208
 9398SOL     OW30187   5.077   0.091   7.455  0.1838 -0.0917  0.1895
 9398SOL    HW130188   5.028   0.048   7.385 -2.5102 -0.2766  1.9855
 9398SOL    HW230189   5.103   0.019   7.513  1.0031  0.1880  0.1777
 9399SOL     OW30190   5.575   2.433   0.884  0.5130 -0.0899 -0.1085
 9399SOL    HW130191   5.600   2.341   0.880  3.2526  0.4863  1.4314
 9399SOL    HW230192   5.580   2.464   0.793  1.0215 -1.0911 -0.4294
 9400SOL     OW30193   6.647   2.260   1.255 -0.1326  0.1137 -0.0180
 9400SOL    HW130194   6.577   2.324   1.265  0.4268  0.7900 -0.3365
 9400SOL    HW230195   6.639   2.229   1.165 -0.5170 -0.4024  0.1930
 9401SOL     OW30196   7.174   6.331   8.098 -0.2466  0.7724 -0.5073
 9401SOL    HW130197   7.091   6.364   8.134  1.3275  2.4169  1.8955
 9401SOL    HW230198   7.182   6.242   8.133 -1.0448  0.5195 -0.9283
 9402SOL     OW30199   6.397   8.721   0.132 -0.2789  0.4914  0.5804
 9402SOL    HW130200   6.472   8.725   0.192  0.1014  0.2051  0.1403
 9402SOL    HW230201   6.406   8.636   0.089  1.0942  1.7732 -1.9044
 9403SOL     OW30202   8.206   8.796   3.816  0.0089  0.6597  0.0697
 9403SOL    HW130203   8.274   8.793   3.884  2.0792 -0.7241 -1.8931
 9403SOL    HW230204   8.137   8.739   3.849  2.0702 -2.0681  0.0440
 9404SOL     OW30205   1.041   0.072   8.056 -0.1835 -0.0020 -0.2675
 9404SOL    HW130206   0.999   0.059   7.970  1.6838 -0.5249 -1.1591
 9404SOL    HW230207   0.986   0.137   8.099 -0.5034  1.2252 -2.3675
 9405SOL     OW30208   5.011   0.616   0.447  0.3762 -0.6455 -0.1905
 9405SOL    HW130209   4.938   0.668   0.413  0.0970 -0.4070  0.7267
 9405SOL    HW230210   5.062   0.591   0.370 -1.1348 -1.5129 -0.9604
 9406SOL     OW30211   2.654   4.614   5.188 -0.3536 -0.0373  0.2128
 9406SOL    HW130212   2.620   4.527   5.166  1.7215 -1.2764  1.6948
 9406SOL    HW230213   2.605   4.640   5.266  1.1646 -1.3192  1.6589
 9407SOL     OW30214   1.737   5.214   2.988 -0.7095 -0.2458 -0.1246
 9407SOL    HW130215   1.793   5.190   2.913  0.4069 -0.7648  0.8428
 9407SOL    HW230216   1.650   5.223   2.950  0.2859  2.6552 -2.1278
 9408SOL     OW30217   0.575   4.178   8.075 -0.4354 -0.5502 -0.0240
 9408SOL    HW130218   0.653   4.136   8.039 -0.9774 -1.1291 -0.5514
 9408SOL    HW230219   0.587   4.172   8.170  1.4611  1.8481 -0.0156
 9409SOL     OW30220   2.833   6.090   3.871  0.2724  0.0259 -0.1406
 9409SOL    HW130221   2.802   6.000   3.868 -0.5288  0.3012 -0.3485
 9409SOL    HW230222   2.913   6.086   3.923 -0.3489 -0.6402  0.8083
 9410SOL     OW30223   0.029   3.221   5.719 -0.6301  0.2415 -0.2176
 9410SOL    HW130224   0.047   3.278   5.793 -0.4818  0.4230 -0.3902
 9410SOL    HW230225   0.079   3.142   5.736 -0.5967  0.2836 -0.1236
 9411SOL     OW30226   2.816   1.626   2.017  0.4025 -0.2302  0.0027
 9411SOL    HW130227   2.736   1.596   2.061  0.4203 -2.9522 -1.5741
 9411SOL    HW230228   2.831   1.714   2.052 -1.2314 -1.0173  3.0586
 9412SOL     OW30229   2.239   6.153   1.671 -0.2806 -0.1054  0.1528
 9412SOL    HW130230   2.288   6.073   1.685  0.5260  0.4464  0.5471
 9412SOL    HW230231   2.297   6.208   1.619  0.2395  1.2024  2.0122
 9413SOL     OW30232   6.196   3.906   4.213  0.5705  0.2108 -0.0372
 9413SOL    HW130233   6.206   3.812   4.199  1.1127  0.3901 -0.9267
 9413SOL    HW230234   6.141   3.935   4.140 -0.1177  0.4824  0.5850
 9414SOL     OW30235   6.339   5.737   6.607 -0.1015 -0.2688 -0.2786
 9414SOL    HW130236   6.316   5.680   6.534 -2.1135  0.0128  0.0762
 9414SOL    HW230237   6.261   5.738   6.662  0.8122  0.7767  1.0677
 9415SOL     OW30238   4.717   4.367   4.901  0.3206 -0.2832 -0.0624
 9415SOL    HW130239   4.810   4.367   4.924 -0.0219  0.9772  1.5682
 9415SOL    HW230240   4.673   4.331   4.979 -0.7087  1.5126  0.2625
 9416SOL     OW30241   0.105   7.680   7.363  0.0014  0.0051  0.5662
 9416SOL    HW130242   0.131   7.597   7.323  1.7309  0.7586  0.0305
 9416SOL    HW230243   0.109   7.744   7.292 -1.4229  0.5558  0.9404
 9417SOL     OW30244   3.275   6.146   3.528  0.0528  0.6334 -0.0294
 9417SOL    HW130245   3.227   6.109   3.602 -0.2097 -0.8955 -0.9348
 9417SOL    HW230246   3.353   6.091   3.520  0.4521  1.2490 -0.4248
 9418SOL     OW30247   2.360   6.681   5.934  0.2029  0.1991 -0.0445
 9418SOL    HW130248   2.413   6.723   5.867  0.1174  0.8151  0.2629
 9418SOL    HW230249   2.391   6.591   5.937 -0.9507 -0.3116 -2.0912
 9419SOL     OW30250   6.893   5.402   2.086  0.5715  0.1334  0.3515
 9419SOL    HW130251   6.979   5.444   2.081  1.2675 -1.3693 -0.9979
 9419SOL    HW230252   6.853   5.418   2.000  0.0364 -0.2646  0.5200
 9420SOL     OW30253   6.684   4.547   2.761  0.0681 -0.0791 -0.4066
 9420SOL    HW130254   6.772   4.576   2.737  0.0805  0.1464 -0.0956
 9420SOL    HW230255   6.663   4.597   2.840  0.9809 -2.4652  1.4628
 9421SOL     OW30256   3.205   8.731   6.351  0.0432  0.5627  0.1199
 9421SOL    HW130257   3.295   8.762   6.344  0.3775  0.1414  2.1021
 9421SOL    HW230258   3.163   8.791   6.413 -0.0253 -1.2568  1.9312
 9422SOL     OW30259   7.602   5.558   3.130  0.7296  0.1164  0.4162
 9422SOL    HW130260   7.664   5.554   3.057 -0.2132  0.2714 -0.4145
 9422SOL    HW230261   7.582   5.651   3.139 -0.4128 -0.0361 -0.2457
 9423SOL     OW30262   6.054   3.447   4.768  0.0626 -0.9302 -0.2536
 9423SOL    HW130263   6.030   3.372   4.822  0.9285  0.1909  1.8029
 9423SOL    HW230264   6.149   3.453   4.776 -0.0238  0.6257 -0.0341
 9424SOL     OW30265   2.011   5.302   4.845  0.2575 -0.7333  0.0493
 9424SOL    HW130266   1.999   5.393   4.873 -0.4510 -0.6732 -0.4422
 9424SOL    HW230267   2.035   5.308   4.753 -0.4985 -1.0722 -0.1745
 9425SOL     OW30268   6.745   0.818   5.148 -0.3025 -0.0003  0.3022
 9425SOL    HW130269   6.732   0.798   5.055 -1.0484  0.0152  0.4016
 9425SOL    HW230270   6.789   0.740   5.182  0.8391  0.3750 -0.2522
 9426SOL     OW30271   7.218   4.837   3.749 -0.2599 -0.8562 -0.0919
 9426SOL    HW130272   7.181   4.920   3.722  1.3088  0.5833  1.8200
 9426SOL    HW230273   7.308   4.838   3.715  0.1457 -1.2119  0.9241
 9427SOL     OW30274   3.922   8.049   5.317 -0.2754 -0.4292  0.6787
 9427SOL    HW130275   3.939   8.057   5.223  1.3435 -0.3510  0.9594
 9427SOL    HW230276   3.937   7.956   5.336  1.4129 -0.0836  1.2008
 9428SOL     OW30277   0.787   7.655   0.967  0.5145  0.1885  0.1341
 9428SOL    HW130278   0.703   7.620   0.997  0.9780  0.3262  1.6441
 9428SOL    HW230279   0.774   7.669   0.873 -1.3982  0.8476  0.4338
 9429SOL     OW30280   1.642   1.429   1.271  0.4338  0.1148  0.0284
 9429SOL    HW130281   1.627   1.357   1.210 -1.9661  0.2530  0.3805
 9429SOL    HW230282   1.705   1.393   1.334  1.4387 -0.6793 -1.3779
 9430SOL     OW30283   6.665   4.244   8.844  0.2946  0.3069 -0.0300
 9430SOL    HW130284   6.681   4.209   8.756  0.3716  1.2162 -0.3835
 9430SOL    HW230285   6.674   4.168   8.902  0.0647 -0.3330 -0.8227
 9431SOL     OW30286   0.868   6.084   4.890 -0.4724 -0.6059 -0.3062
 9431SOL    HW130287   0.776   6.095   4.866 -1.5868 -1.4071  3.1196
 9431SOL    HW230288   0.891   6.165   4.936 -0.4403 -1.5325  1.4017
 9432SOL     OW30289   1.333   0.962   6.470  0.2484 -0.2686 -0.0930
 9432SOL    HW130290   1.292   1.009   6.398 -0.8330 -1.1798 -0.1055
 9432SOL    HW230291   1.261   0.912   6.510  0.8629  0.0311  1.4696
 9433SOL     OW30292   3.151   3.399   3.655 -0.6084  0.0999 -0.1733
 9433SOL    HW130293   3.071   3.351   3.675 -1.0496 -0.0256 -2.0238
 9433SOL    HW230294   3.189   3.420   3.740 -2.0454 -0.7769  0.7199
 9434SOL     OW30295   4.257   8.282   7.219 -0.5258 -0.3369  0.2698
 9434SOL    HW130296   4.237   8.306   7.128  0.4727 -1.3818 -0.2568
 9434SOL    HW230297   4.344   8.243   7.215  0.9130  2.3656  2.1690
 9435SOL     OW30298   4.170   2.550   1.257  0.2303  0.1849 -0.1733
 9435SOL    HW130299   4.186   2.457   1.245 -2.3781 -0.2979 -0.5048
 9435SOL    HW230300   4.148   2.582   1.170  0.5106  0.9920  0.0445
 9436SOL     OW30301   2.808   8.701   6.487  0.8333  0.2226  0.4395
 9436SOL    HW130302   2.812   8.605   6.494  0.9589  0.0232 -1.6606
 9436SOL    HW230303   2.881   8.724   6.429  0.3630  1.5142  0.3315
 9437SOL     OW30304   3.275   2.245   3.303 -0.3823 -0.0414  0.2970
 9437SOL    HW130305   3.278   2.161   3.350 -1.7620 -0.2081  0.1436
 9437SOL    HW230306   3.298   2.223   3.213  1.1307  0.0826  0.6363
 9438SOL     OW30307   7.263   2.903   6.163  0.1622  0.0713  0.6683
 9438SOL    HW130308   7.198   2.951   6.216 -0.3260  0.1101  0.0466
 9438SOL    HW230309   7.290   2.831   6.219  0.1528  0.4958  1.2328
 9439SOL     OW30310   5.122   1.400   2.271 -0.1362  0.9314 -0.1146
 9439SOL    HW130311   5.092   1.468   2.332 -1.1192 -0.3367  0.9007
 9439SOL    HW230312   5.057   1.330   2.281  0.9059 -0.2012 -1.0200
 9440SOL     OW30313   5.773   4.510   7.836 -0.3223  0.7467  0.3797
 9440SOL    HW130314   5.793   4.427   7.793  0.4949  0.5643  1.0719
 9440SOL    HW230315   5.679   4.523   7.821  0.0782  1.1638 -2.2380
 9441SOL     OW30316   7.556   4.464   7.644  0.3985  0.5467  0.5588
 9441SOL    HW130317   7.529   4.534   7.584 -0.9163 -1.1984 -1.0077
 9441SOL    HW230318   7.592   4.396   7.586  3.2331  0.5339  2.1581
 9442SOL     OW30319   0.239   4.087   2.788  0.2817  0.1426 -0.1023
 9442SOL    HW130320   0.212   3.996   2.779  0.4158  0.0832  0.0786
 9442SOL    HW230321   0.271   4.111   2.701 -0.0517  0.1147 -0.2307
 9443SOL     OW30322   1.890   8.330   5.322 -0.2628  0.5386 -0.1336
 9443SOL    HW130323   1.918   8.247   5.361 -0.2614  0.7541  0.3314
 9443SOL    HW230324   1.963   8.390   5.340  0.9627 -0.0209 -2.8096
 9444SOL     OW30325   5.272   1.590   8.718 -0.2419  0.0183  0.0888
 9444SOL    HW130326   5.183   1.608   8.748 -0.2893 -0.5237  0.2904
 9444SOL    HW230327   5.262   1.553   8.631 -0.2097 -0.0219  0.1017
 9445SOL     OW30328   8.623   2.473   4.392 -0.4051 -0.2064  0.1874
 9445SOL    HW130329   8.670   2.478   4.309 -0.7273 -0.0634  0.0109
 9445SOL    HW230330   8.538   2.434   4.369 -1.0199  1.0621  0.2169
 9446SOL     OW30331   2.222   4.901   0.837  0.5519 -0.6627 -0.5082
 9446SOL    HW130332   2.265   4.934   0.917 -0.9416 -0.2112  0.1416
 9446SOL    HW230333   2.261   4.815   0.823  0.4724 -0.9883  1.0336
 9447SOL     OW30334   6.360   3.278   2.507  0.3308 -0.4776  0.3241
 9447SOL    HW130335   6.396   3.357   2.467 -2.1473  0.9356  0.6673
 9447SOL    HW230336   6.288   3.253   2.449 -0.6849 -0.8217  1.6887
 9448SOL     OW30337   7.667   2.476   0.487  0.5403 -0.5307  0.0738
 9448SOL    HW130338   7.582   2.486   0.444  0.6584  1.3651  0.2197
 9448SOL    HW230339   7.710   2.560   0.474  2.4012 -1.4483  0.0423
 9449SOL     OW30340   4.514   0.635   0.157  0.2972 -0.2903  0.1497
 9449SOL    HW130341   4.551   0.704   0.212  1.4476  0.0590 -1.0161
 9449SOL    HW230342   4.583   0.569   0.152  0.4641 -0.0494 -1.3208
 9450SOL     OW30343   8.872   7.435   7.960 -0.3161  0.1728 -0.2778
 9450SOL    HW130344   8.849   7.349   7.996  0.5442 -0.6377 -1.5622
 9450SOL    HW230345   8.946   7.464   8.012  0.4267 -0.6363 -0.8349
 9451SOL     OW30346   3.207   8.817   7.132 -0.1568 -0.0547  0.5649
 9451SOL    HW130347   3.162   8.786   7.211 -0.5916  0.4199  0.5062
 9451SOL    HW230348   3.188   8.750   7.066 -2.2607  0.9546  0.0417
 9452SOL     OW30349   8.351   3.707   6.812  0.2985  0.5011 -0.1146
 9452SOL    HW130350   8.256   3.698   6.813  0.4415 -1.6919  0.7474
 9452SOL    HW230351   8.381   3.632   6.760  1.5841  0.3280  0.8263
 9453SOL     OW30352   0.673   1.200   6.403 -0.1376  0.3168 -0.2841
 9453SOL    HW130353   0.695   1.167   6.316  0.4732 -0.7957  0.2710
 9453SOL    HW230354   0.705   1.133   6.463 -1.1504  0.7390  0.7736
 9454SOL     OW30355   1.440   2.953   5.259  0.7593  0.8707 -0.1339
 9454SOL    HW130356   1.403   2.987   5.340 -0.3728  0.2238 -0.3611
 9454SOL    HW230357   1.533   2.941   5.278  0.7864  2.1034  0.5924
 9455SOL     OW30358   0.246   5.872   1.800 -0.1873  0.7413 -0.7836
 9455SOL    HW130359   0.295   5.953   1.790  1.9179 -0.1810  1.2454
 9455SOL    HW230360   0.165   5.897   1.844 -1.0157  2.0751 -2.8807
 9456SOL     OW30361   1.462   5.426   6.255  0.0277  0.3960 -0.1434
 9456SOL    HW130362   1.437   5.446   6.345 -0.3407 -1.8052  0.3051
 9456SOL    HW230363   1.428   5.337   6.240  1.1221  0.2439 -2.0448
 9457SOL     OW30364   7.206   5.287   4.167 -0.5900 -0.4100  0.2565
 9457SOL    HW130365   7.184   5.240   4.086 -1.0799 -0.1722  0.2512
 9457SOL    HW230366   7.278   5.345   4.142  0.7087 -1.8496  0.4860
 9458SOL     OW30367   2.282   0.663   1.294  0.1860  0.2416  0.3503
 9458SOL    HW130368   2.200   0.708   1.274 -0.1523  0.1258  1.3893
 9458SOL    HW230369   2.264   0.616   1.376  1.7103  1.3699  1.3951
 9459SOL     OW30370   5.893   7.250   0.571  0.1740 -0.3963  0.1322
 9459SOL    HW130371   5.810   7.280   0.606 -0.0743 -0.0238 -0.7319
 9459SOL    HW230372   5.899   7.158   0.596 -0.3098 -0.3179  0.5366
 9460SOL     OW30373   8.671   1.529   1.201  0.4538  0.3973 -0.1764
 9460SOL    HW130374   8.590   1.508   1.246  0.0749 -0.4950 -1.2057
 9460SOL    HW230375   8.672   1.624   1.195 -1.1579  0.3825 -1.2413
 9461SOL     OW30376   7.036   0.103   6.429 -0.2023  0.5531 -0.1472
 9461SOL    HW130377   6.984   0.178   6.401 -0.6791  0.5046  0.5975
 9461SOL    HW230378   7.125   0.124   6.400 -0.8477 -0.0756 -2.8373
 9462SOL     OW30379   0.223   6.392   0.345 -0.0831  0.1068 -0.3225
 9462SOL    HW130380   0.273   6.389   0.264  0.0197 -3.9726 -0.3049
 9462SOL    HW230381   0.284   6.364   0.413 -0.9858  0.4057  0.6615
 9463SOL     OW30382   0.408   6.358   0.572 -0.4196 -0.4090  0.4416
 9463SOL    HW130383   0.435   6.373   0.663  0.9249 -0.9328  0.1625
 9463SOL    HW230384   0.422   6.264   0.558 -0.9879 -0.4075 -0.1894
 9464SOL     OW30385   1.228   1.224   6.823  0.2690 -0.0412  0.3113
 9464SOL    HW130386   1.322   1.231   6.813  0.0507  1.8235 -0.8155
 9464SOL    HW230387   1.216   1.185   6.910  2.0482  0.1044  0.6604
 9465SOL     OW30388   3.375   1.732   3.391  0.1905  0.4634 -0.4834
 9465SOL    HW130389   3.344   1.714   3.480  2.0333  0.9624  0.3022
 9465SOL    HW230390   3.356   1.651   3.343  2.0311 -1.0807  1.2085
 9466SOL     OW30391   3.486   7.255   1.961  0.1513 -0.2031  0.0914
 9466SOL    HW130392   3.493   7.350   1.955  1.4207 -0.3678 -2.7308
 9466SOL    HW230393   3.558   7.229   2.019  1.8110  0.4222 -1.5931
 9467SOL     OW30394   7.839   0.997   8.351  0.1005 -0.0898 -0.7707
 9467SOL    HW130395   7.933   0.992   8.369  0.3101 -1.0013 -2.0218
 9467SOL    HW230396   7.820   1.091   8.353  0.5925  0.0200  1.5112
 9468SOL     OW30397   1.236   7.972   6.288 -0.1645  0.3539  0.2160
 9468SOL    HW130398   1.221   7.930   6.203 -0.7699 -0.1012  0.5396
 9468SOL    HW230399   1.166   7.938   6.344  2.3469 -2.3562  2.0201
 9469SOL     OW30400   1.409   3.237   7.808  0.3072  0.0183  0.2134
 9469SOL    HW130401   1.401   3.191   7.724 -0.2793 -0.8460  0.7251
 9469SOL    HW230402   1.495   3.212   7.841 -0.0009 -0.7156  0.4805
 9470SOL     OW30403   4.260   2.520   2.493  0.4853  0.1784 -0.4141
 9470SOL    HW130404   4.349   2.486   2.490 -0.0107 -1.1140 -2.0210
 9470SOL    HW230405   4.215   2.477   2.420 -1.1033  1.8169 -0.4700
 9471SOL     OW30406   0.238   7.830   7.605 -0.0184  0.1370  0.3944
 9471SOL    HW130407   0.286   7.860   7.528  2.1175 -5.4431 -0.9297
 9471SOL    HW230408   0.175   7.766   7.571 -1.5206  0.0423  3.0756
 9472SOL     OW30409   5.499   0.543   6.882  0.5495 -0.0096 -0.1965
 9472SOL    HW130410   5.589   0.558   6.913  1.4555 -0.6790 -2.3427
 9472SOL    HW230411   5.508   0.478   6.813 -1.5807  0.1576 -0.6876
 9473SOL     OW30412   3.671   3.861   0.557  0.4833  0.1749  0.2514
 9473SOL    HW130413   3.749   3.904   0.523 -0.0538  0.2832 -0.9271
 9473SOL    HW230414   3.681   3.770   0.529  0.2044  0.1838  0.1200
 9474SOL     OW30415   7.740   4.226   0.126  0.1096  0.3943 -0.0193
 9474SOL    HW130416   7.672   4.223   0.193 -0.0310  1.4819 -0.0926
 9474SOL    HW230417   7.807   4.165   0.157  0.6417  1.7984  1.7905
 9475SOL     OW30418   2.515   7.861   1.661  0.0018  0.1517  0.0085
 9475SOL    HW130419   2.431   7.896   1.691  0.2036 -0.5779  1.5532
 9475SOL    HW230420   2.501   7.840   1.569 -0.4484  3.2169 -0.7222
 9476SOL     OW30421   7.261   6.944   0.857 -0.2030 -0.0416 -0.0640
 9476SOL    HW130422   7.201   6.892   0.909 -0.3805 -0.3369 -0.5528
 9476SOL    HW230423   7.220   7.030   0.851 -0.0166  0.0922  0.5589
 9477SOL     OW30424   2.724   6.508   5.338 -0.8456 -0.5040 -0.3316
 9477SOL    HW130425   2.780   6.438   5.373 -1.1495 -1.4161 -1.5914
 9477SOL    HW230426   2.640   6.465   5.322 -0.9100  0.0392 -1.5245
 9478SOL     OW30427   7.119   4.334   8.696  0.3087 -0.2785  0.2278
 9478SOL    HW130428   7.188   4.283   8.655 -0.6698 -0.7273 -0.9441
 9478SOL    HW230429   7.042   4.277   8.692 -0.5107  0.8197  0.0086
 9479SOL     OW30430   1.842   7.795   7.499  0.4574  0.2601 -1.0435
 9479SOL    HW130431   1.800   7.746   7.570  1.3004 -1.5810 -1.7531
 9479SOL    HW230432   1.880   7.872   7.542  0.3030 -0.4231  0.3696
 9480SOL     OW30433   6.336   1.228   7.526  0.1788  0.7263  0.2036
 9480SOL    HW130434   6.377   1.172   7.460 -0.2167 -0.6318  1.0656
 9480SOL    HW230435   6.398   1.230   7.598  0.0251  1.0983  0.3291
 9481SOL     OW30436   7.211   8.285   8.662  0.6777  0.2332  0.8144
 9481SOL    HW130437   7.189   8.194   8.683  2.0610 -0.6218 -1.2454
 9481SOL    HW230438   7.219   8.327   8.748 -0.4750 -1.4224  1.8111
 9482SOL     OW30439   2.569   4.665   2.624  0.4391  0.3881  0.4414
 9482SOL    HW130440   2.653   4.689   2.663  1.4116  1.4834 -2.1303
 9482SOL    HW230441   2.591   4.603   2.555 -0.7835  1.1010 -0.6310
 9483SOL     OW30442   2.044   4.691   6.286 -0.0798  0.3194 -0.0375
 9483SOL    HW130443   1.960   4.732   6.307  0.4528  1.3636  0.1659
 9483SOL    HW230444   2.060   4.631   6.359 -0.5156  0.3154  0.0601
 9484SOL     OW30445   7.194   6.308   8.706 -0.1200 -0.3355 -0.8141
 9484SOL    HW130446   7.128   6.327   8.640  0.3084  1.1521 -0.8531
 9484SOL    HW230447   7.274   6.350   8.674 -0.1057  1.1561  0.9954
 9485SOL     OW30448   2.763   7.087   3.038  0.1975 -0.6323  0.0790
 9485SOL    HW130449   2.721   7.122   2.960  1.7713 -1.4028 -1.1634
 9485SOL    HW230450   2.754   7.156   3.104 -1.5412 -0.1464 -0.6207
 9486SOL     OW30451   5.494   6.221   6.618  0.6757  0.6362 -0.3389
 9486SOL    HW130452   5.423   6.270   6.659  1.5271  1.9889 -0.4383
 9486SOL    HW230453   5.542   6.182   6.691  0.7087  0.9455 -0.1977
 9487SOL     OW30454   4.266   2.481   1.660 -0.4317  0.1660  0.3120
 9487SOL    HW130455   4.323   2.405   1.670 -0.0127  0.4016 -0.1711
 9487SOL    HW230456   4.230   2.497   1.747  0.0371 -0.1543  0.5679
 9488SOL     OW30457   1.789   7.187   7.221 -0.3091  0.2059 -0.3783
 9488SOL    HW130458   1.878   7.178   7.253  0.0675 -0.5615 -1.5667
 9488SOL    HW230459   1.768   7.101   7.185 -1.6192  0.3092  0.0886
 9489SOL     OW30460   5.459   3.009   1.729 -0.5101  0.5994 -0.1718
 9489SOL    HW130461   5.454   3.105   1.733  0.1559  0.6303  0.0644
 9489SOL    HW230462   5.552   2.990   1.732 -0.6214 -0.0467 -0.6449
 9490SOL     OW30463   0.240   3.850   1.954 -0.0223  0.3170 -0.2254
 9490SOL    HW130464   0.233   3.808   2.039 -0.3467 -2.0504 -1.3163
 9490SOL    HW230465   0.185   3.797   1.896  1.6147  0.6691 -2.2746
 9491SOL     OW30466   5.679   8.750   8.194  0.2392 -0.2123 -0.4737
 9491SOL    HW130467   5.658   8.661   8.166 -2.2969 -0.2620  1.2235
 9491SOL    HW230468   5.594   8.792   8.207  1.2987  1.5311  1.5530
 9492SOL     OW30469   8.724   4.846   1.829 -0.2115 -0.1053 -0.9665
 9492SOL    HW130470   8.704   4.815   1.741 -2.2967  0.3194 -0.6837
 9492SOL    HW230471   8.704   4.940   1.827 -1.1523 -0.2627  0.1857
 9493SOL     OW30472   5.608   7.427   6.849 -0.1458 -0.0829 -0.0694
 9493SOL    HW130473   5.640   7.517   6.854 -0.6821  0.0445  1.6372
 9493SOL    HW230474   5.640   7.386   6.929  1.3513 -1.8713 -1.4929
 9494SOL     OW30475   4.413   3.273   3.961 -0.0247 -0.8875 -0.7635
 9494SOL    HW130476   4.485   3.214   3.942  0.8439 -0.2270  0.3656
 9494SOL    HW230477   4.369   3.286   3.877  1.6224 -0.7232 -1.6266
 9495SOL     OW30478   0.101   7.375   1.654  0.6167  0.3495 -0.7574
 9495SOL    HW130479   0.050   7.399   1.731 -0.3020 -0.5594 -1.0667
 9495SOL    HW230480   0.157   7.451   1.638 -0.0282  1.0241  0.0950
 9496SOL     OW30481   1.935   2.876   4.473  0.3423 -0.3040 -0.4594
 9496SOL    HW130482   1.869   2.942   4.454  0.3446  0.0856  0.7856
 9496SOL    HW230483   1.919   2.851   4.564 -0.1466 -2.5970 -1.1060
 9497SOL     OW30484   7.311   0.697   5.855  0.1748  0.2074  0.3629
 9497SOL    HW130485   7.389   0.672   5.904 -0.6517 -3.0868  0.2220
 9497SOL    HW230486   7.344   0.727   5.770  1.3142 -0.3227  0.6042
 9498SOL     OW30487   0.495   5.035   2.164  0.0052 -0.1981 -0.1063
 9498SOL    HW130488   0.419   4.977   2.169 -1.1798  1.1605 -1.4308
 9498SOL    HW230489   0.514   5.043   2.071  1.2394  0.1965  0.1543
 9499SOL     OW30490   5.671   5.753   4.964 -0.4390  0.5022 -0.1115
 9499SOL    HW130491   5.581   5.784   4.972  0.0352  2.3118 -1.2682
 9499SOL    HW230492   5.680   5.726   4.873  0.4054  1.0876 -0.2121
 9500SOL     OW30493   7.690   2.810   7.900 -0.6224  0.4137  0.4647
 9500SOL    HW130494   7.694   2.899   7.864  1.0873 -0.8274 -2.8480
 9500SOL    HW230495   7.780   2.791   7.926 -0.4185 -1.1523 -1.2330
 9501SOL     OW30496   8.425   0.503   0.262  0.4386 -0.5840  0.1083
 9501SOL    HW130497   8.520   0.506   0.262  0.4086  1.4380 -0.5312
 9501SOL    HW230498   8.403   0.469   0.174  0.5541 -0.3664 -0.0044
 9502SOL     OW30499   2.535   2.110   7.711 -0.1870  0.5103 -0.1969
 9502SOL    HW130500   2.573   2.185   7.758  1.9073 -0.2983 -0.4811
 9502SOL    HW230501   2.600   2.041   7.721 -1.2278 -0.7021 -1.5118
 9503SOL     OW30502   7.792   0.999   4.162  0.7698  0.2858 -0.8309
 9503SOL    HW130503   7.728   0.958   4.220  0.6131  2.2451  0.4866
 9503SOL    HW230504   7.854   0.929   4.142  0.5736 -0.5983  1.3621
 9504SOL     OW30505   4.258   6.163   2.162 -0.4345 -0.0252 -0.2920
 9504SOL    HW130506   4.172   6.168   2.203  0.9654  1.0604  2.7927
 9504SOL    HW230507   4.301   6.090   2.207  0.2287 -0.6952 -1.9506
 9505SOL     OW30508   4.224   7.460   2.808  0.3939  0.0001  0.0443
 9505SOL    HW130509   4.211   7.509   2.726 -1.6203  0.4122  0.5527
 9505SOL    HW230510   4.272   7.381   2.781 -0.0684  0.2145 -1.5074
 9506SOL     OW30511   4.851   6.736   4.097 -0.3514 -0.2106  0.3311
 9506SOL    HW130512   4.794   6.662   4.076 -1.2219  0.5000  0.1410
 9506SOL    HW230513   4.813   6.775   4.176 -0.9993  1.1300 -0.6084
 9507SOL     OW30514   2.987   4.926   5.650  0.3362 -0.2058 -0.1522
 9507SOL    HW130515   2.913   4.970   5.608 -0.1733  2.7378  3.3268
 9507SOL    HW230516   2.954   4.902   5.737  3.6875  2.7643  2.2481
 9508SOL     OW30517   8.504   1.589   2.898  0.2054  0.5524  0.3232
 9508SOL    HW130518   8.416   1.626   2.885  0.3611  0.8745  0.1843
 9508SOL    HW230519   8.550   1.607   2.816  0.9124  1.8170  0.9636
 9509SOL     OW30520   7.531   6.385   7.932  0.4808 -0.0947 -0.5492
 9509SOL    HW130521   7.558   6.472   7.962 -0.1025  0.2839 -1.0956
 9509SOL    HW230522   7.611   6.345   7.897  0.8645  0.0051  0.2059
 9510SOL     OW30523   8.626   2.037   1.857  0.1624  0.0138  0.3081
 9510SOL    HW130524   8.558   2.082   1.908  0.2343 -0.2314  0.6228
 9510SOL    HW230525   8.629   2.085   1.774  1.2982  1.5471  1.1898
 9511SOL     OW30526   1.266   5.975   8.025  0.1720 -0.5612 -0.4289
 9511SOL    HW130527   1.229   6.045   7.971 -1.7602 -2.5118 -1.8525
 9511SOL    HW230528   1.263   6.009   8.114  2.4004  2.3554 -1.2967
 9512SOL     OW30529   0.038   8.763   6.334 -0.4550  0.1441  0.3104
 9512SOL    HW130530   0.101   8.698   6.363  0.4139  0.2389 -1.2600
 9512SOL    HW230531  -0.024   8.771   6.407  0.3216 -1.2536  1.1629
 9513SOL     OW30532   2.470   4.812   2.401 -0.9595  0.1694 -0.0593
 9513SOL    HW130533   2.440   4.733   2.356  1.4489  0.0766 -1.6573
 9513SOL    HW230534   2.482   4.784   2.492 -0.2252 -1.2962 -0.5759
 9514SOL     OW30535   7.782   0.089   5.837 -0.3001 -0.5125  0.4411
 9514SOL    HW130536   7.719   0.141   5.888 -0.8034  0.0180 -0.7018
 9514SOL    HW230537   7.777   0.124   5.749 -0.1799 -2.0982 -0.2309
 9515SOL     OW30538   8.522   5.369   1.015 -0.4696 -0.2014  0.1532
 9515SOL    HW130539   8.575   5.292   1.035 -0.4748 -0.7939 -1.8760
 9515SOL    HW230540   8.547   5.392   0.926 -1.9195  0.9488  0.0119
 9516SOL     OW30541   5.572   5.914   0.551 -0.4395 -0.7743  0.3834
 9516SOL    HW130542   5.587   5.995   0.600 -3.0911 -0.2904  0.5295
 9516SOL    HW230543   5.581   5.940   0.459  0.4001 -0.7222  0.4734
 9517SOL     OW30544   5.576   0.832   5.795 -0.3967  0.4920  0.3245
 9517SOL    HW130545   5.485   0.822   5.824  0.1504  1.4119  2.6687
 9517SOL    HW230546   5.581   0.922   5.764  0.0595  1.0147  1.8320
 9518SOL     OW30547   5.926   0.386   2.679 -0.4535 -0.0718 -0.1354
 9518SOL    HW130548   6.005   0.395   2.733 -0.9050 -0.5935  0.6388
 9518SOL    HW230549   5.888   0.473   2.677 -0.9761 -0.2399  1.2703
 9519SOL     OW30550   3.285   0.646   3.086  1.0643  0.6127 -0.3577
 9519SOL    HW130551   3.222   0.610   3.025  2.6460 -0.4366 -1.4325
 9519SOL    HW230552   3.237   0.651   3.169 -0.7260  0.8702 -1.3456
 9520SOL     OW30553   6.438   0.157   1.182 -0.0998  0.4662 -0.0869
 9520SOL    HW130554   6.448   0.064   1.200 -0.8146  0.6718  1.4901
 9520SOL    HW230555   6.412   0.161   1.090 -0.5271 -0.9138 -0.0486
 9521SOL     OW30556   1.155   7.784   5.885 -0.1112  0.0275  0.2125
 9521SOL    HW130557   1.245   7.755   5.870 -0.2935 -0.3540 -0.1301
 9521SOL    HW230558   1.165   7.874   5.919  0.3300  0.7202 -1.6526
 9522SOL     OW30559   8.046   1.002   1.690 -0.3603 -1.0914 -0.1552
 9522SOL    HW130560   8.103   0.983   1.617  0.5069  0.8128 -0.0230
 9522SOL    HW230561   8.104   1.005   1.766 -0.5650  1.0209 -0.0442
 9523SOL     OW30562   4.455   4.768   5.389 -0.4871 -0.6470  0.4479
 9523SOL    HW130563   4.521   4.836   5.396 -0.3142 -0.8224  0.5378
 9523SOL    HW230564   4.477   4.706   5.459 -0.4690 -0.9459  0.1778
 9524SOL     OW30565   3.519   0.624   0.268  0.0271 -0.9541  0.3926
 9524SOL    HW130566   3.557   0.539   0.293  1.0286 -1.3262 -2.1549
 9524SOL    HW230567   3.467   0.605   0.190  0.7597  0.8812 -0.5773
 9525SOL     OW30568   1.881   3.127   5.250  0.5948  0.3080 -0.5627
 9525SOL    HW130569   1.949   3.085   5.198 -0.0682 -0.7501 -0.5968
 9525SOL    HW230570   1.828   3.174   5.186  0.8068  0.4595 -0.6292
 9526SOL     OW30571   0.357   0.195   6.209  0.2961  0.3574  0.2995
 9526SOL    HW130572   0.398   0.277   6.237  2.2507 -0.3740 -0.2681
 9526SOL    HW230573   0.315   0.161   6.288  0.5321  1.2812  0.8396
 9527SOL     OW30574   1.810   1.578   4.430  0.2008  0.5234 -0.3803
 9527SOL    HW130575   1.730   1.526   4.419  0.7423 -0.7897  1.4133
 9527SOL    HW230576   1.836   1.562   4.521  1.6821  2.1371 -0.4759
 9528SOL     OW30577   7.811   1.987   4.383 -0.6541  0.6977 -0.0606
 9528SOL    HW130578   7.828   2.081   4.388 -1.0507  0.7810 -0.2763
 9528SOL    HW230579   7.799   1.960   4.474  1.1418  0.5325  0.1743
 9529SOL     OW30580   3.810   0.337   8.585  0.2856 -0.3897 -0.1706
 9529SOL    HW130581   3.718   0.338   8.559  0.5956 -1.0353 -1.3592
 9529SOL    HW230582   3.857   0.305   8.507  1.4916 -0.2613  0.4777
 9530SOL     OW30583   7.608   3.388   8.179  0.0626 -0.1140  0.7549
 9530SOL    HW130584   7.642   3.311   8.134  0.2667 -0.4740  1.5062
 9530SOL    HW230585   7.514   3.387   8.161  0.1996  0.0019 -0.0187
 9531SOL     OW30586   2.723   2.737   6.945 -0.1286 -0.3128 -0.8952
 9531SOL    HW130587   2.719   2.643   6.928  0.0112 -0.4347 -0.2424
 9531SOL    HW230588   2.773   2.746   7.026 -1.1622  0.2510 -0.2973
 9532SOL     OW30589   7.233   5.217   4.432 -0.3228  0.2868  0.0004
 9532SOL    HW130590   7.162   5.154   4.439  1.4694 -2.0634 -1.1455
 9532SOL    HW230591   7.230   5.246   4.341 -0.5642  1.1334  0.2759
 9533SOL     OW30592   0.883   8.794   6.737 -0.0031  0.3128  0.2343
 9533SOL    HW130593   0.823   8.838   6.677  0.5025 -0.5231 -0.9129
 9533SOL    HW230594   0.840   8.801   6.823 -1.6063 -0.0262 -0.5059
 9534SOL     OW30595   3.514   7.228   2.348  0.0535 -0.2729 -0.0010
 9534SOL    HW130596   3.562   7.225   2.265  0.4885 -2.2301  0.2663
 9534SOL    HW230597   3.431   7.184   2.329  0.8391 -2.3115  0.9404
 9535SOL     OW30598   8.605   0.241   4.896  0.0947  0.2705 -0.1764
 9535SOL    HW130599   8.577   0.271   4.982  0.4926  0.4871 -0.1240
 9535SOL    HW230600   8.579   0.311   4.836  1.8409  1.1820  0.0602
 9536SOL     OW30601   3.836   7.233   0.775  0.3975 -0.6964  0.5149
 9536SOL    HW130602   3.810   7.212   0.686 -2.1390  0.6202  0.8453
 9536SOL    HW230603   3.811   7.157   0.826  0.2853 -0.7704  0.3491
 9537SOL     OW30604   3.230   3.501   4.553 -0.1907  0.2164  0.0127
 9537SOL    HW130605   3.158   3.515   4.615 -0.4869 -1.5756  0.1333
 9537SOL    HW230606   3.295   3.567   4.576 -1.0803  0.7751  1.0225
 9538SOL     OW30607   6.142   6.862   7.280  0.5041  0.1767  0.3974
 9538SOL    HW130608   6.158   6.841   7.371  1.4458  1.4111  0.5395
 9538SOL    HW230609   6.059   6.909   7.281  1.6782  2.3724  0.9955
 9539SOL     OW30610   6.045   1.974   6.156 -0.0177 -0.5719 -0.1358
 9539SOL    HW130611   6.016   1.997   6.068 -2.2183 -0.5008  0.5503
 9539SOL    HW230612   6.038   2.055   6.206  2.3972 -0.3046 -0.1138
 9540SOL     OW30613   0.247   6.032   1.242  0.2225 -0.1010  0.4281
 9540SOL    HW130614   0.335   6.068   1.253  0.2131 -0.2813  1.1038
 9540SOL    HW230615   0.215   6.018   1.331 -0.3156 -0.4602  0.1822
 9541SOL     OW30616   8.031   2.010   3.748  0.3288  0.1749 -0.0027
 9541SOL    HW130617   8.021   1.927   3.795 -0.2618  0.0615 -0.3172
 9541SOL    HW230618   8.005   1.990   3.658 -0.5916  0.8778  0.0893
 9542SOL     OW30619   7.042   4.877   2.838 -0.2885 -0.1293 -0.8709
 9542SOL    HW130620   6.998   4.849   2.918 -1.1473 -0.5902 -1.4940
 9542SOL    HW230621   7.034   4.972   2.839 -0.9101 -0.1766 -0.7522
 9543SOL     OW30622   2.965   3.045   6.663 -0.2422 -0.3422  0.5693
 9543SOL    HW130623   2.985   3.031   6.756  0.3847 -2.0729  0.2237
 9543SOL    HW230624   2.907   2.972   6.640 -0.2309 -0.0464 -0.4359
 9544SOL     OW30625   5.479   7.057   2.121  0.3398  0.7651  0.4887
 9544SOL    HW130626   5.523   7.096   2.045  2.5631  1.8653  2.2284
 9544SOL    HW230627   5.549   7.043   2.185 -1.3199 -0.8988  2.0649
 9545SOL     OW30628   8.021   3.221   0.548 -0.1637  0.1588 -0.5794
 9545SOL    HW130629   8.029   3.305   0.504  0.5618  0.8968  0.9042
 9545SOL    HW230630   7.956   3.235   0.616  0.7299 -0.1599  0.3687
 9546SOL     OW30631   1.685   4.470   4.233  0.3873 -0.0923 -0.0770
 9546SOL    HW130632   1.677   4.376   4.216 -0.1369 -0.1829  0.6145
 9546SOL    HW230633   1.608   4.508   4.191  0.9291  0.1231 -0.9111
 9547SOL     OW30634   0.789   2.440   3.379  0.5368 -0.1491  0.2015
 9547SOL    HW130635   0.745   2.356   3.365 -1.7077  1.1067 -0.7928
 9547SOL    HW230636   0.805   2.474   3.291  1.1623  0.5857  0.5932
 9548SOL     OW30637   6.723   6.197   5.407  0.2173  0.1488  0.2439
 9548SOL    HW130638   6.709   6.214   5.500 -0.1583 -0.9471  0.4004
 9548SOL    HW230639   6.637   6.172   5.374 -0.2180  2.8839 -0.9642
 9549SOL     OW30640   4.857   7.944   5.961 -0.7537  0.1283  0.2668
 9549SOL    HW130641   4.916   7.972   6.031  0.7434 -0.7766 -0.5748
 9549SOL    HW230642   4.814   7.866   5.996 -0.1286 -0.2275  0.2511
 9550SOL     OW30643   6.805   5.988   0.712 -0.3642  0.5350 -0.2128
 9550SOL    HW130644   6.875   6.019   0.654  2.1891 -0.3099  2.2557
 9550SOL    HW230645   6.795   5.895   0.690 -0.3408  0.5229 -0.1702
 9551SOL     OW30646   7.826   8.224   6.246  0.6446  0.3053 -0.1349
 9551SOL    HW130647   7.915   8.195   6.224  1.1956  2.4989 -1.0507
 9551SOL    HW230648   7.828   8.235   6.341  1.7783  1.5416 -0.2729
 9552SOL     OW30649   7.568   0.110   0.762 -0.3297 -0.0186 -0.3239
 9552SOL    HW130650   7.543   0.058   0.685 -0.6980  0.6115 -0.6319
 9552SOL    HW230651   7.507   0.184   0.762  0.0676  0.3129  0.2289
 9553SOL     OW30652   1.564   8.090   7.718  0.2262 -0.8040  0.3370
 9553SOL    HW130653   1.621   8.054   7.651 -0.0977 -0.2904 -0.2249
 9553SOL    HW230654   1.553   8.182   7.693  0.1944 -0.5753  1.1574
 9554SOL     OW30655   7.887   4.658   6.142 -0.8222 -0.9216  0.3199
 9554SOL    HW130656   7.877   4.564   6.157 -1.7451 -0.7527  0.8628
 9554SOL    HW230657   7.959   4.684   6.200 -0.7812 -1.2407  0.4125
 9555SOL     OW30658   4.208   0.962   1.443  0.5411  0.1690  0.5271
 9555SOL    HW130659   4.199   0.873   1.409 -2.2744  0.4093  0.4490
 9555SOL    HW230660   4.245   0.951   1.530  1.2187 -0.9781  0.1165
 9556SOL     OW30661   8.096   4.843   2.617 -0.6667 -0.0321 -0.5997
 9556SOL    HW130662   8.053   4.864   2.534 -1.9136  2.5506  0.5757
 9556SOL    HW230663   8.024   4.830   2.679  0.2242  0.0783  0.5052
 9557SOL     OW30664   7.946   4.465   2.182 -0.4056 -0.3707  0.3405
 9557SOL    HW130665   8.017   4.527   2.197  0.5356 -1.4021  0.3348
 9557SOL    HW230666   7.933   4.422   2.266 -0.3844 -0.8235  0.1181
 9558SOL     OW30667   6.454   4.523   5.542 -0.6538 -0.0054 -0.3352
 9558SOL    HW130668   6.464   4.532   5.447  1.8892 -1.8398 -0.3435
 9558SOL    HW230669   6.374   4.471   5.552 -1.5155  1.0421 -1.3664
 9559SOL     OW30670   3.640   7.345   5.312 -0.3074  0.1472 -0.2655
 9559SOL    HW130671   3.678   7.427   5.346 -2.6222  0.7011  1.1693
 9559SOL    HW230672   3.613   7.297   5.390 -0.7855 -1.0950 -1.1763
 9560SOL     OW30673   4.495   2.569   5.424  0.4944  0.1919 -0.4009
 9560SOL    HW130674   4.403   2.560   5.398  1.2536 -1.9903 -2.8018
 9560SOL    HW230675   4.530   2.636   5.365  0.2311  2.0786  1.4579
 9561SOL     OW30676   7.606   8.482   5.814  0.5514 -0.2314 -0.4725
 9561SOL    HW130677   7.556   8.414   5.858  2.6528 -1.1323  0.6583
 9561SOL    HW230678   7.558   8.563   5.831 -0.2473 -0.9827  0.9948
 9562SOL     OW30679   5.244   4.338   3.838  0.1910  0.1836 -0.5838
 9562SOL    HW130680   5.181   4.391   3.789  0.1107  0.3218 -0.3331
 9562SOL    HW230681   5.250   4.381   3.923 -1.4123 -1.3317  0.3711
 9563SOL     OW30682   7.777   0.152   2.998 -0.4290 -0.6212  0.2105
 9563SOL    HW130683   7.742   0.065   2.976  0.1536 -1.2530  1.6321
 9563SOL    HW230684   7.703   0.198   3.038 -0.3954 -0.9559  0.6707
 9564SOL     OW30685   3.693   3.258   8.163  0.3587  0.1890 -0.2547
 9564SOL    HW130686   3.635   3.183   8.151 -0.3300  0.6123  0.3730
 9564SOL    HW230687   3.694   3.301   8.077 -2.5290  1.7727  0.3958
 9565SOL     OW30688   5.813   2.399   4.798  0.0586  0.3646 -0.3794
 9565SOL    HW130689   5.728   2.397   4.754 -0.2639 -2.0649  0.2227
 9565SOL    HW230690   5.793   2.420   4.889 -0.0556 -1.2675 -0.0063
 9566SOL     OW30691   1.229   1.596   8.751 -0.5000  0.4912  0.3106
 9566SOL    HW130692   1.210   1.625   8.840 -2.7603 -0.0566  0.0537
 9566SOL    HW230693   1.221   1.675   8.697  0.5368  0.7568  0.5297
 9567SOL     OW30694   3.474   8.122   5.590 -0.7181  0.2396 -0.1693
 9567SOL    HW130695   3.540   8.119   5.521 -2.2095  0.9964 -1.6961
 9567SOL    HW230696   3.465   8.032   5.620 -0.2141 -0.1411 -1.1439
 9568SOL     OW30697   1.674   2.492   3.734 -0.8706  0.0542  0.5239
 9568SOL    HW130698   1.739   2.551   3.696 -1.0507  0.7747  1.2987
 9568SOL    HW230699   1.623   2.548   3.793 -2.7651 -0.2853 -0.6900
 9569SOL     OW30700   6.718   5.290   2.276 -0.1149 -0.5452 -0.0634
 9569SOL    HW130701   6.653   5.359   2.291 -1.1143 -1.1666 -1.3003
 9569SOL    HW230702   6.769   5.321   2.202  2.2667  0.7572  1.9643
 9570SOL     OW30703   2.340   4.664   0.745 -0.1118 -0.9798  0.1573
 9570SOL    HW130704   2.335   4.652   0.650 -2.3563  2.9716 -0.4443
 9570SOL    HW230705   2.283   4.596   0.781 -1.3656 -0.9079 -1.5857
 9571SOL     OW30706   8.036   5.250   1.645 -0.1597 -0.2080 -0.3364
 9571SOL    HW130707   8.111   5.210   1.602 -0.2413  1.2326 -1.9003
 9571SOL    HW230708   7.974   5.177   1.657  0.4950 -0.9428 -1.2639
 9572SOL     OW30709   3.041   1.442   7.602  0.1234 -0.3117  0.4346
 9572SOL    HW130710   3.062   1.354   7.631 -0.4022  0.0245  1.9133
 9572SOL    HW230711   3.011   1.431   7.511  1.9784 -1.3720 -0.1076
 9573SOL     OW30712   5.051   5.404   2.524 -0.2393 -0.4734  0.1665
 9573SOL    HW130713   4.986   5.430   2.589 -0.5368  0.2362 -0.4124
 9573SOL    HW230714   5.134   5.405   2.572 -0.5818 -0.9084  0.7824
 9574SOL     OW30715   6.382   5.169   5.492 -0.2600  0.0282 -0.5371
 9574SOL    HW130716   6.321   5.206   5.555 -0.0671  1.7053 -1.2970
 9574SOL    HW230717   6.400   5.081   5.525 -0.9931  0.4763  1.1450
 9575SOL     OW30718   7.818   7.515   7.682 -0.1156 -0.7472  0.6262
 9575SOL    HW130719   7.790   7.579   7.615  0.5025 -1.1362 -0.0175
 9575SOL    HW230720   7.904   7.545   7.709 -0.0407 -1.0261  0.6955
 9576SOL     OW30721   6.812   0.616   2.491 -0.0619  0.5201  0.1099
 9576SOL    HW130722   6.730   0.604   2.441 -0.3507  1.0100  0.4544
 9576SOL    HW230723   6.785   0.666   2.568  0.4974  0.3207  0.4335
 9577SOL     OW30724   5.372   5.879   6.187 -1.0220  0.3154  0.2786
 9577SOL    HW130725   5.365   5.973   6.170  0.0786 -0.0741 -2.9443
 9577SOL    HW230726   5.303   5.839   6.134 -0.3749 -0.7765  0.2111
 9578SOL     OW30727   2.115   8.828   2.176  0.3944  0.4725 -0.5198
 9578SOL    HW130728   2.173   8.904   2.174  0.3922  0.4952  0.1087
 9578SOL    HW230729   2.123   8.790   2.089  0.6598  0.9935 -0.7286
 9579SOL     OW30730   3.780   6.165   2.813  0.1144 -0.5417 -0.0222
 9579SOL    HW130731   3.747   6.077   2.793  1.6545 -1.0199 -0.5955
 9579SOL    HW230732   3.760   6.216   2.735  2.1012 -1.2582 -1.0810
 9580SOL     OW30733   2.156   3.440   1.407 -0.1769  0.5794  0.0610
 9580SOL    HW130734   2.073   3.406   1.373  0.6039  0.3142 -1.6494
 9580SOL    HW230735   2.196   3.365   1.451 -0.2875  0.3875 -0.1663
 9581SOL     OW30736   4.485   2.241   7.313  0.0231 -0.2400  0.5413
 9581SOL    HW130737   4.561   2.199   7.273 -0.5303 -1.1652  0.4002
 9581SOL    HW230738   4.447   2.294   7.243  0.2539 -0.1838  0.4599
 9582SOL     OW30739   6.904   1.375   0.606  0.4417 -0.2134  0.7750
 9582SOL    HW130740   6.994   1.404   0.620  0.7218 -0.2119 -0.8614
 9582SOL    HW230741   6.885   1.399   0.515  0.3208 -4.0284 -0.3979
 9583SOL     OW30742   2.602   6.666   3.624  0.0763  0.2090 -0.0744
 9583SOL    HW130743   2.577   6.748   3.666 -0.7075 -0.7642  1.4809
 9583SOL    HW230744   2.527   6.608   3.639  0.5572 -0.7690 -1.2388
 9584SOL     OW30745   6.977   6.729   4.186  0.1121 -0.2538 -0.5432
 9584SOL    HW130746   6.913   6.794   4.217 -0.0938 -0.5540 -0.3368
 9584SOL    HW230747   7.046   6.782   4.145  0.6282  0.1794  0.8387
 9585SOL     OW30748   5.910   8.848   8.126  0.0377  0.5727 -0.6368
 9585SOL    HW130749   5.891   8.909   8.055  0.5123  1.5574  0.0586
 9585SOL    HW230750   5.825   8.822   8.160 -0.1516  2.0320  0.0388
 9586SOL     OW30751   1.363   3.921   1.937 -0.3561 -0.3989  0.2319
 9586SOL    HW130752   1.327   3.993   1.886  1.0147  0.2350  0.1323
 9586SOL    HW230753   1.418   3.963   2.003 -1.5229 -1.2336  1.8227
 9587SOL     OW30754   2.053   7.525   2.887 -0.2887 -0.3127  0.3269
 9587SOL    HW130755   2.021   7.609   2.920 -1.9590 -0.7410 -0.1270
 9587SOL    HW230756   1.974   7.475   2.865  0.6873 -1.4714 -0.7484
 9588SOL     OW30757   6.750   0.313   1.626 -0.6702  0.0763  0.1946
 9588SOL    HW130758   6.715   0.224   1.619 -0.9832  0.2851 -1.2289
 9588SOL    HW230759   6.747   0.347   1.537  0.5908  1.0868  0.4979
 9589SOL     OW30760   2.662   0.051   4.057  0.0727 -0.0774 -0.0124
 9589SOL    HW130761   2.577   0.013   4.034 -0.5377  1.4933 -0.4827
 9589SOL    HW230762   2.679   0.115   3.987  0.9541  0.6608  0.8545
 9590SOL     OW30763   4.274   1.278   7.633 -0.1081  0.1873  0.6404
 9590SOL    HW130764   4.192   1.326   7.624 -0.9662 -1.0007  1.6536
 9590SOL    HW230765   4.270   1.209   7.566  0.0728  0.1492  0.6673
 9591SOL     OW30766   0.446   2.916   2.647 -0.2374 -0.1428  0.1855
 9591SOL    HW130767   0.424   2.938   2.737 -0.6192 -1.1288  0.3432
 9591SOL    HW230768   0.432   2.998   2.598 -0.7907  0.1892  0.8826
 9592SOL     OW30769   2.367   3.580   4.590 -0.6376 -0.2080  0.1887
 9592SOL    HW130770   2.424   3.656   4.587 -2.2422  1.0457  0.0352
 9592SOL    HW230771   2.418   3.509   4.552  0.5236  1.0477 -0.6627
 9593SOL     OW30772   8.569   2.414   2.213 -0.4964  0.8078  0.3927
 9593SOL    HW130773   8.474   2.428   2.209 -0.7144 -0.5943  0.2170
 9593SOL    HW230774   8.595   2.396   2.123  0.3530  3.4544  0.0413
 9594SOL     OW30775   6.329   8.388   7.293 -0.3662  0.3349  0.0280
 9594SOL    HW130776   6.326   8.307   7.241 -2.0462  0.5009 -0.1927
 9594SOL    HW230777   6.303   8.361   7.381  0.5507  0.3974  0.3282
 9595SOL     OW30778   0.163   3.563   6.205  0.0420 -0.2314  0.0415
 9595SOL    HW130779   0.179   3.471   6.225 -0.6475 -0.6435 -1.1758
 9595SOL    HW230780   0.249   3.605   6.217  0.2505 -0.9192  1.0936
 9596SOL     OW30781   4.966   3.443   3.520  0.1963  0.4327  0.2931
 9596SOL    HW130782   5.056   3.471   3.508 -0.2343  1.2373 -1.2549
 9596SOL    HW230783   4.940   3.404   3.437 -0.5378 -0.8853  1.0870
 9597SOL     OW30784   0.401   4.885   2.557 -0.0551 -0.2383 -0.0482
 9597SOL    HW130785   0.391   4.919   2.646  1.5237  1.3593 -0.4242
 9597SOL    HW230786   0.320   4.911   2.512 -1.3203 -1.9266  1.1128
 9598SOL     OW30787   6.465   5.845   3.340 -0.7039 -0.4127  0.3562
 9598SOL    HW130788   6.449   5.940   3.341  0.2268 -0.2339  2.1593
 9598SOL    HW230789   6.377   5.806   3.346 -1.0135  0.3914  1.5339
 9599SOL     OW30790   2.625   0.572   8.166  0.2187  0.0651  0.0669
 9599SOL    HW130791   2.649   0.501   8.225  0.8199 -0.4701 -0.7935
 9599SOL    HW230792   2.596   0.527   8.086 -0.9241  0.7584  0.0633
 9600SOL     OW30793   5.307   2.140   2.034  0.1437  0.7681 -0.4026
 9600SOL    HW130794   5.377   2.196   2.000 -1.7100  2.9219 -0.9447
 9600SOL    HW230795   5.233   2.199   2.047 -0.9830 -0.9997  2.1733
 9601SOL     OW30796   2.754   4.283   6.849 -0.0255 -0.3280 -0.7243
 9601SOL    HW130797   2.765   4.212   6.913 -1.2648  1.0308  1.0910
 9601SOL    HW230798   2.680   4.255   6.795 -2.1253  0.4964  1.5042
 9602SOL     OW30799   6.169   7.036   1.161 -0.3595 -0.0714  0.3227
 9602SOL    HW130800   6.217   7.117   1.143 -2.7632  1.8163  1.8411
 9602SOL    HW230801   6.096   7.036   1.100 -0.8316 -0.7028  0.8691
 9603SOL     OW30802   8.023   0.026   7.106 -0.1137 -0.0256  0.4092
 9603SOL    HW130803   7.946   0.083   7.100 -0.8485 -1.0235 -0.0355
 9603SOL    HW230804   8.086   0.076   7.158  0.3080  2.2901 -2.1367
 9604SOL     OW30805   5.729   6.512   2.138  0.0467 -0.1374  0.2105
 9604SOL    HW130806   5.751   6.538   2.228 -0.2691 -0.1942  0.3074
 9604SOL    HW230807   5.772   6.428   2.126  0.3083 -0.0050  0.2173
 9605SOL     OW30808   2.109   2.434   1.995 -0.4985 -0.1234  0.3563
 9605SOL    HW130809   2.026   2.415   1.950 -1.0683 -1.4172  1.8703
 9605SOL    HW230810   2.116   2.367   2.062  2.3061 -0.6594 -0.3642
 9606SOL     OW30811   4.527   5.543   7.738  0.3779  0.3453  0.8110
 9606SOL    HW130812   4.586   5.559   7.812  1.6000 -1.7634  0.3866
 9606SOL    HW230813   4.535   5.449   7.721 -1.1241  0.4838 -0.9718
 9607SOL     OW30814   8.079   3.552   8.014  0.1256  0.3102  0.8702
 9607SOL    HW130815   8.131   3.509   7.947 -0.4491  0.4450  0.3250
 9607SOL    HW230816   8.142   3.579   8.080  0.6844  0.0526  0.4486
 9608SOL     OW30817   1.576   8.653   0.592 -0.5703  0.0998 -0.1745
 9608SOL    HW130818   1.543   8.614   0.511 -1.2782  1.5215 -0.6061
 9608SOL    HW230819   1.497   8.680   0.639 -0.0910  1.5735 -0.1944
 9609SOL     OW30820   5.687   1.927   1.347 -0.4835  0.4759 -0.0203
 9609SOL    HW130821   5.617   1.992   1.348  0.9223  2.0912  1.1308
 9609SOL    HW230822   5.693   1.900   1.256 -1.0141  2.1289 -0.5945
 9610SOL     OW30823   6.795   2.221   5.031 -0.7841 -0.1458  0.0094
 9610SOL    HW130824   6.841   2.305   5.035  0.1555 -0.5857 -0.9452
 9610SOL    HW230825   6.714   2.235   5.079 -0.8163  1.4195 -0.4690
 9611SOL     OW30826   0.595   1.165   2.545  0.2265  0.4455  0.5838
 9611SOL    HW130827   0.630   1.162   2.634  0.0852 -0.7691  0.6200
 9611SOL    HW230828   0.653   1.225   2.498  1.0806  0.1016  1.1686
 9612SOL     OW30829   6.780   2.867   8.396  0.3117 -0.1307  0.0250
 9612SOL    HW130830   6.788   2.817   8.314  0.6827  1.3138 -0.8508
 9612SOL    HW230831   6.692   2.903   8.393  0.9358  1.4347 -0.6710
 9613SOL     OW30832   4.167   5.909   4.259  0.0179 -0.4143  0.2371
 9613SOL    HW130833   4.143   5.971   4.327  0.4250  0.4069 -0.3442
 9613SOL    HW230834   4.084   5.870   4.231 -0.1709 -0.5891  1.0362
 9614SOL     OW30835   3.742   6.898   8.673  0.5545  0.3023  0.3644
 9614SOL    HW130836   3.799   6.968   8.705  0.6527  0.2092  0.3935
 9614SOL    HW230837   3.793   6.855   8.604  0.4467  0.3361  0.2636
 9615SOL     OW30838   8.445   0.824   7.558  0.1230 -0.6073 -0.7692
 9615SOL    HW130839   8.485   0.749   7.603  0.3589  1.1314  2.2750
 9615SOL    HW230840   8.357   0.830   7.595  0.6180  1.4042  0.2497
 9616SOL     OW30841   5.242   0.896   6.245  0.5977  1.0626 -0.6226
 9616SOL    HW130842   5.333   0.921   6.231  0.7491  0.3294 -1.0286
 9616SOL    HW230843   5.232   0.813   6.198 -0.1918  0.9655 -0.3136
 9617SOL     OW30844   8.577   0.220   0.327  0.5507 -0.2188 -0.0038
 9617SOL    HW130845   8.570   0.139   0.377 -0.6841 -0.3090 -0.2736
 9617SOL    HW230846   8.505   0.274   0.360  0.9665  0.5179 -0.2733
 9618SOL     OW30847   2.338   6.879   5.431  0.4965  0.3177 -0.0532
 9618SOL    HW130848   2.265   6.938   5.415  0.1117 -0.7385 -2.7573
 9618SOL    HW230849   2.310   6.826   5.506 -2.1806 -0.9182 -1.7629
 9619SOL     OW30850   4.283   7.200   5.714 -0.2088  0.4348 -0.1296
 9619SOL    HW130851   4.378   7.214   5.709  0.1313 -1.4900  0.2289
 9619SOL    HW230852   4.266   7.129   5.653 -1.6117  1.4055 -0.9393
 9620SOL     OW30853   5.126   8.748   0.315 -0.1398  0.2208  0.4942
 9620SOL    HW130854   5.171   8.773   0.396 -0.8970 -0.7247  1.2192
 9620SOL    HW230855   5.036   8.776   0.328 -1.3649 -3.7508  1.8587
 9621SOL     OW30856   0.457   1.459   7.037  0.2164  0.7351 -0.6074
 9621SOL    HW130857   0.499   1.373   7.047  0.7582  1.0596  0.0074
 9621SOL    HW230858   0.433   1.483   7.126 -0.6673  0.8628 -0.8770
 9622SOL     OW30859   4.640   8.784   0.257 -0.1768 -0.1282 -0.5948
 9622SOL    HW130860   4.570   8.835   0.297 -0.5800  0.1439 -1.6309
 9622SOL    HW230861   4.632   8.800   0.163  0.9650 -0.4830 -0.7758
 9623SOL     OW30862   7.528   6.081   0.891 -0.4681 -0.5627  0.4312
 9623SOL    HW130863   7.613   6.053   0.924 -0.8263 -1.3074  0.7212
 9623SOL    HW230864   7.544   6.097   0.797  0.3168  0.6635  0.7406
 9624SOL     OW30865   0.842   0.422   0.894 -0.4762  1.1092 -0.1182
 9624SOL    HW130866   0.856   0.356   0.961  3.8352 -0.1658 -1.9067
 9624SOL    HW230867   0.917   0.481   0.902 -0.9194  2.1126 -2.4285
 9625SOL     OW30868   5.249   8.717   6.432  0.1170  0.2566  0.2683
 9625SOL    HW130869   5.206   8.686   6.511 -1.7135  0.8117 -0.4540
 9625SOL    HW230870   5.270   8.808   6.450 -0.2553  0.3689  0.1504
 9626SOL     OW30871   0.876   1.757   1.309 -0.7517  0.1061 -0.1213
 9626SOL    HW130872   0.791   1.716   1.296 -0.0836 -0.6395 -2.8163
 9626SOL    HW230873   0.913   1.765   1.221  3.0921 -2.0660  1.0691
 9627SOL     OW30874   8.700   4.561   1.896  0.2111  0.1051  0.3414
 9627SOL    HW130875   8.662   4.641   1.933 -0.8452 -0.5360  0.6928
 9627SOL    HW230876   8.774   4.592   1.843  0.1446  1.2612  0.8890
 9628SOL     OW30877   8.114   4.659   3.095 -0.2750 -0.3440 -0.1205
 9628SOL    HW130878   8.187   4.652   3.035  0.4144 -1.1250  0.7717
 9628SOL    HW230879   8.149   4.708   3.170 -0.2460 -1.7933  0.8685
 9629SOL     OW30880   4.330   2.496   6.743  0.5778  0.3314  0.0131
 9629SOL    HW130881   4.415   2.507   6.787 -0.5638 -0.8569  2.7605
 9629SOL    HW230882   4.309   2.404   6.754 -0.3049  0.2146 -2.2216
 9630SOL     OW30883   6.835   0.336   2.323 -0.0415  0.7310  0.1711
 9630SOL    HW130884   6.888   0.395   2.269 -0.9261  0.6359 -0.8208
 9630SOL    HW230885   6.754   0.385   2.338 -1.0198 -0.4360 -1.1369
 9631SOL     OW30886   4.438   4.727   5.123 -0.9550 -0.5111  0.5973
 9631SOL    HW130887   4.470   4.638   5.115 -0.1586 -0.4012  2.1796
 9631SOL    HW230888   4.452   4.750   5.215  0.1400  1.7030 -0.0333
 9632SOL     OW30889   1.791   3.374   8.462 -0.2156 -0.6011  0.4028
 9632SOL    HW130890   1.724   3.432   8.496 -0.2625 -0.3375 -0.1297
 9632SOL    HW230891   1.765   3.357   8.371 -0.2498 -1.5174  0.5700
 9633SOL     OW30892   6.750   4.823   5.896  0.0124 -0.2594  0.0920
 9633SOL    HW130893   6.683   4.762   5.865  0.7257 -1.1667  0.2597
 9633SOL    HW230894   6.772   4.792   5.984  2.0084 -1.2377 -0.6601
 9634SOL     OW30895   8.113   7.945   8.460 -0.2263  0.0046  0.0543
 9634SOL    HW130896   8.032   7.984   8.427 -0.5328 -0.0504  0.7288
 9634SOL    HW230897   8.103   7.851   8.447  0.1462  0.0695 -0.7659
 9635SOL     OW30898   7.183   2.436   2.393  0.6376  0.0409 -0.3033
 9635SOL    HW130899   7.117   2.486   2.441  1.9699  0.9557  0.6892
 9635SOL    HW230900   7.160   2.344   2.408  0.1124  0.3371  0.8078
 9636SOL     OW30901   8.317   2.378   0.485  0.0497 -0.3318 -0.0533
 9636SOL    HW130902   8.325   2.452   0.424  1.3527 -0.4967 -0.1098
 9636SOL    HW230903   8.233   2.393   0.530  1.5087  2.8094  2.0222
 9637SOL     OW30904   6.054   0.670   4.797 -0.1735  0.0113 -0.0837
 9637SOL    HW130905   6.060   0.710   4.710  1.1581  0.7264  0.3091
 9637SOL    HW230906   6.082   0.738   4.857  2.5491 -1.5325  0.5915
 9638SOL     OW30907   1.308   2.290   5.673 -0.5598  0.7727 -0.2071
 9638SOL    HW130908   1.221   2.328   5.661 -1.0841 -0.4355 -0.4371
 9638SOL    HW230909   1.315   2.276   5.768 -0.8516  0.3788 -0.2386
 9639SOL     OW30910   4.416   5.613   5.675  0.0607 -0.0910 -0.4014
 9639SOL    HW130911   4.403   5.707   5.685  0.6978 -0.2025  2.0132
 9639SOL    HW230912   4.495   5.606   5.621 -0.2465  0.7271 -0.9820
 9640SOL     OW30913   5.120   5.515   0.502  0.2428 -0.3734 -0.4792
 9640SOL    HW130914   5.067   5.534   0.579 -0.1045 -0.3406 -0.7201
 9640SOL    HW230915   5.057   5.514   0.430  0.5028 -0.7734 -0.7083
 9641SOL     OW30916   5.016   3.989   7.856 -0.2423  0.0853  0.1843
 9641SOL    HW130917   5.033   4.053   7.926  0.6203 -0.5772  0.5982
 9641SOL    HW230918   5.057   4.028   7.779 -0.8922  0.6533  0.1077
 9642SOL     OW30919   5.060   4.405   6.516  0.0095 -0.2083 -0.1647
 9642SOL    HW130920   5.056   4.479   6.576  1.0519 -0.2604 -0.0141
 9642SOL    HW230921   5.014   4.334   6.561  0.6553 -0.2048  0.5231
 9643SOL     OW30922   4.884   4.743   8.611 -0.3285  0.0730 -0.0025
 9643SOL    HW130923   4.875   4.648   8.618  0.1906  0.0221  0.0348
 9643SOL    HW230924   4.828   4.767   8.538 -0.6653 -0.2286  0.1524
 9644SOL     OW30925   3.890   2.452   6.348  0.1397  0.5005 -0.0283
 9644SOL    HW130926   3.874   2.532   6.299  0.8021  0.3469 -0.5064
 9644SOL    HW230927   3.808   2.403   6.342 -0.6969  1.6689  1.3006
 9645SOL     OW30928   4.862   0.345   4.825  0.0769 -0.4887 -0.2958
 9645SOL    HW130929   4.769   0.366   4.832  0.3107  0.3052  0.6775
 9645SOL    HW230930   4.905   0.406   4.884  1.3797  0.1920 -1.8593
 9646SOL     OW30931   5.958   0.597   6.687 -0.1700 -0.8171  0.3652
 9646SOL    HW130932   5.914   0.541   6.752  0.1422 -1.5188 -0.0217
 9646SOL    HW230933   5.949   0.550   6.605 -1.8656  0.7509 -0.4338
 9647SOL     OW30934   1.440   2.960   3.609  0.3683 -0.4820  0.6180
 9647SOL    HW130935   1.347   2.944   3.625  0.4029 -0.3659  0.9376
 9647SOL    HW230936   1.442   3.012   3.529  0.1324 -0.0551  0.8888
 9648SOL     OW30937   1.724   2.280   4.497 -0.5778 -0.2634 -0.6235
 9648SOL    HW130938   1.803   2.231   4.478 -1.3727 -1.8229 -0.0743
 9648SOL    HW230939   1.671   2.273   4.418 -1.0621 -1.0548 -0.2375
 9649SOL     OW30940   1.487   8.490   8.678 -0.3128  0.5938  0.7335
 9649SOL    HW130941   1.467   8.419   8.616 -0.3490 -0.2370  1.6606
 9649SOL    HW230942   1.546   8.450   8.742 -1.5685  0.9242  2.1719
 9650SOL     OW30943   3.855   7.643   8.510 -0.0636 -0.4697  0.6247
 9650SOL    HW130944   3.773   7.632   8.462  1.3963 -0.4207 -2.1104
 9650SOL    HW230945   3.846   7.587   8.587 -2.2921 -1.1864 -0.0868
 9651SOL     OW30946   8.437   2.200   3.260 -0.0966  0.0675 -0.4114
 9651SOL    HW130947   8.382   2.203   3.338  0.9666 -1.6692  0.4786
 9651SOL    HW230948   8.486   2.118   3.268  1.5143  0.8045 -1.8987
 9652SOL     OW30949   5.871   2.765   6.033  0.1387  0.0414 -0.4168
 9652SOL    HW130950   5.930   2.742   6.105  0.9062  0.8399 -0.7616
 9652SOL    HW230951   5.833   2.849   6.058 -2.3259 -1.3077  0.6482
 9653SOL     OW30952   4.430   3.934   8.322  0.3244  0.1689 -0.2081
 9653SOL    HW130953   4.498   3.994   8.352  0.6835  0.4282 -1.4619
 9653SOL    HW230954   4.471   3.847   8.325  0.3947  0.2078 -0.0577
 9654SOL     OW30955   2.202   1.447   8.615 -0.3193  0.0165  0.7842
 9654SOL    HW130956   2.221   1.540   8.602 -2.2940  0.4215  0.4908
 9654SOL    HW230957   2.250   1.424   8.695 -0.3381  1.4610  1.2502
 9655SOL     OW30958   6.884   5.358   4.870 -0.6841 -0.2142  0.4416
 9655SOL    HW130959   6.945   5.294   4.832 -1.3305 -1.0245  0.7322
 9655SOL    HW230960   6.933   5.399   4.941 -0.0646  0.0371 -0.1177
 9656SOL     OW30961   0.361   8.096   8.157 -0.1099 -0.1481 -0.0109
 9656SOL    HW130962   0.365   8.191   8.171  1.6722 -0.1707 -0.0836
 9656SOL    HW230963   0.436   8.077   8.101 -0.3496 -1.6317  0.1249
 9657SOL     OW30964   1.317   6.242   1.551  0.3180  0.7124 -0.3743
 9657SOL    HW130965   1.268   6.280   1.624  0.3410  1.0504 -0.5316
 9657SOL    HW230966   1.384   6.307   1.530  1.6140 -0.2553  0.6139
 9658SOL     OW30967   3.445   4.462   5.129  0.4913  0.4791  0.2553
 9658SOL    HW130968   3.486   4.544   5.104  0.5721  0.1202 -0.8221
 9658SOL    HW230969   3.354   4.485   5.146  1.0488  1.2627  2.5659
 9659SOL     OW30970   7.284   2.143   7.998 -0.5141  0.7070  0.3477
 9659SOL    HW130971   7.205   2.093   7.981  0.3642 -0.5189 -0.2191
 9659SOL    HW230972   7.348   2.078   8.027  0.9361  1.3294 -1.3162
 9660SOL     OW30973   8.174   6.910   2.118  0.3116 -0.1239 -0.8432
 9660SOL    HW130974   8.164   6.827   2.166 -1.1027  0.7706  0.5303
 9660SOL    HW230975   8.266   6.932   2.127  0.4743 -0.9845 -0.2209
 9661SOL     OW30976   6.761   5.844   2.655 -0.1930 -0.1314 -0.3117
 9661SOL    HW130977   6.807   5.890   2.725 -0.4569 -0.0199 -0.2097
 9661SOL    HW230978   6.684   5.898   2.636 -0.5722 -0.5882 -0.1055
 9662SOL     OW30979   7.451   8.871   2.767 -0.2874  0.0702 -0.5012
 9662SOL    HW130980   7.379   8.813   2.743 -0.7977  0.9208 -1.0538
 9662SOL    HW230981   7.443   8.946   2.708  1.9715 -0.4903 -1.6503
 9663SOL     OW30982   1.316   4.925   4.990  0.0969  0.4507 -0.1240
 9663SOL    HW130983   1.267   5.007   4.992  2.1362  1.7337  0.1353
 9663SOL    HW230984   1.381   4.937   4.920 -0.6927 -1.6770 -1.3102
 9664SOL     OW30985   8.208   1.423   7.226 -0.0902 -0.1547 -0.3052
 9664SOL    HW130986   8.284   1.423   7.167 -0.6744 -0.3310 -1.0781
 9664SOL    HW230987   8.219   1.345   7.280  0.1788 -0.2845 -0.5468
 9665SOL     OW30988   4.088   5.666   8.349  0.1206 -0.5315 -0.1522
 9665SOL    HW130989   4.043   5.747   8.374  0.7211 -0.6736  1.5103
 9665SOL    HW230990   4.142   5.691   8.274  0.8358  0.8150  0.7636
 9666SOL     OW30991   8.321   4.569   5.145 -0.3157 -0.4695  0.3933
 9666SOL    HW130992   8.338   4.476   5.155  0.4509 -0.3535  0.2093
 9666SOL    HW230993   8.244   4.585   5.199  0.2876 -0.9655  1.4236
 9667SOL     OW30994   5.888   3.572   5.984 -0.6534 -0.3539 -0.0451
 9667SOL    HW130995   5.803   3.567   6.028  0.1340  0.0245  1.6099
 9667SOL    HW230996   5.951   3.589   6.055  0.8555 -0.9947 -1.1664
 9668SOL     OW30997   2.336   3.241   1.883  0.0764 -0.2560 -0.5537
 9668SOL    HW130998   2.379   3.195   1.811  0.0282 -0.0203 -0.7362
 9668SOL    HW230999   2.350   3.334   1.863  0.7358 -0.1970  0.1496
 9669SOL     OW31000   6.534   2.350   6.042  0.1655  0.2663 -0.3139
 9669SOL    HW131001   6.623   2.376   6.020  0.1843 -1.9389 -3.4582
 9669SOL    HW231002   6.486   2.432   6.051  2.3815  1.4899  1.1713
 9670SOL     OW31003   6.257   0.962   8.769 -0.2645  0.4879 -0.1395
 9670SOL    HW131004   6.249   0.868   8.784 -0.0808  0.6154  0.8284
 9670SOL    HW231005   6.190   0.982   8.703  1.1632 -0.6709 -2.0112
 9671SOL     OW31006   8.535   3.112   6.169  0.9807  0.2443 -0.2546
 9671SOL    HW131007   8.476   3.170   6.217 -0.6534 -1.5029 -0.0318
 9671SOL    HW231008   8.496   3.105   6.082  0.5183 -1.3267  0.0485
 9672SOL     OW31009   6.759   5.972   2.254  0.1205 -0.1510 -0.6840
 9672SOL    HW131010   6.673   5.950   2.218  1.8504 -2.6565 -3.8055
 9672SOL    HW231011   6.777   5.903   2.318  0.2821 -0.3409 -0.9317
 9673SOL     OW31012   3.866   3.636   0.858  0.1602  0.3778  0.0994
 9673SOL    HW131013   3.923   3.560   0.873 -0.4188 -0.1671 -0.3552
 9673SOL    HW231014   3.876   3.655   0.765  0.9139  1.3847  0.3756
 9674SOL     OW31015   0.928   1.459   6.175  0.3330  0.2824 -0.3309
 9674SOL    HW131016   0.857   1.400   6.203  3.3623 -2.2520  2.9933
 9674SOL    HW231017   0.969   1.415   6.101 -0.1851  0.6030 -0.8118
 9675SOL     OW31018   7.550   7.187   4.028  0.3995 -0.5985 -0.0890
 9675SOL    HW131019   7.564   7.281   4.020 -0.9031 -0.3124  0.7908
 9675SOL    HW231020   7.622   7.157   4.084  0.6888 -0.1112 -0.1916
 9676SOL     OW31021   6.461   1.660   4.399 -0.2717  0.0356 -0.0109
 9676SOL    HW131022   6.428   1.734   4.348  0.9715  0.5102 -0.1542
 9676SOL    HW231023   6.431   1.677   4.489  2.6266  2.4883  0.6787
 9677SOL     OW31024   6.466   4.191   6.525 -0.2584  0.3904  0.1652
 9677SOL    HW131025   6.485   4.180   6.618 -1.0224  0.2900  0.3102
 9677SOL    HW231026   6.396   4.256   6.522 -0.1582  0.4785 -0.3458
 9678SOL     OW31027   2.425   8.740   7.297  0.3130  0.0266  0.0592
 9678SOL    HW131028   2.430   8.666   7.237  1.6786 -1.3357  1.7163
 9678SOL    HW231029   2.370   8.708   7.369  0.5444  0.7817  0.5807
 9679SOL     OW31030   3.813   1.943   1.486  0.6563 -0.0807  0.1970
 9679SOL    HW131031   3.889   1.999   1.498  1.3365 -0.9825  0.1785
 9679SOL    HW231032   3.849   1.859   1.459 -0.2997 -0.7003  0.7995
 9680SOL     OW31033   7.321   4.209   0.459 -0.2570 -0.3023 -0.2508
 9680SOL    HW131034   7.353   4.142   0.519  2.1604  0.1163 -0.9308
 9680SOL    HW231035   7.371   4.287   0.482 -0.7759  0.4124 -1.4595
 9681SOL     OW31036   7.597   7.518   8.237 -0.4157  0.3947 -0.4220
 9681SOL    HW131037   7.623   7.580   8.305 -3.1545  0.9812  0.2019
 9681SOL    HW231038   7.608   7.432   8.277 -0.9226  0.6882  0.3654
 9682SOL     OW31039   0.115   3.403   5.278 -0.3903  0.6036  0.1192
 9682SOL    HW131040   0.049   3.368   5.218  0.3405 -0.3729 -0.1378
 9682SOL    HW231041   0.108   3.349   5.356  2.0313 -1.4876 -0.9784
 9683SOL     OW31042   3.683   6.549   2.707  0.1476 -0.4346  0.1939
 9683SOL    HW131043   3.754   6.571   2.769 -0.1316  0.8746  0.0866
 9683SOL    HW231044   3.681   6.623   2.647 -0.7282 -0.8863 -0.3444
 9684SOL     OW31045   7.776   1.434   7.267  0.2563 -0.0331  0.3156
 9684SOL    HW131046   7.812   1.394   7.188  0.1514  0.0177  0.2417
 9684SOL    HW231047   7.761   1.525   7.242  0.1636 -0.0326  0.3755
 9685SOL     OW31048   7.498   0.181   5.581 -0.3416 -0.4271 -0.5911
 9685SOL    HW131049   7.406   0.205   5.594 -0.3832 -1.3484  1.0539
 9685SOL    HW231050   7.495   0.104   5.525 -0.5628 -0.5189 -0.4529
 9686SOL     OW31051   0.797   6.904   8.267  0.9943 -0.3350  0.0635
 9686SOL    HW131052   0.823   6.872   8.181 -2.6640 -0.9089 -1.0150
 9686SOL    HW231053   0.778   6.997   8.254 -0.4857 -0.6298 -0.0544
 9687SOL     OW31054   6.029   8.601   5.663 -0.3592  0.0039  0.1891
 9687SOL    HW131055   6.106   8.648   5.632 -0.5664 -0.8450 -1.7526
 9687SOL    HW231056   6.013   8.534   5.597  0.4476 -3.4956  3.2263
 9688SOL     OW31057   1.077   0.685   5.355 -0.2981  0.5978  0.2983
 9688SOL    HW131058   1.167   0.680   5.387  0.0711  0.5979 -0.6907
 9688SOL    HW231059   1.077   0.632   5.275 -1.1707  0.6140  0.2789
 9689SOL     OW31060   4.382   4.780   1.457 -0.0831 -0.1797 -0.1384
 9689SOL    HW131061   4.359   4.862   1.502  0.2231 -0.8933  1.3819
 9689SOL    HW231062   4.366   4.799   1.365  0.6555  1.8470  0.0800
 9690SOL     OW31063   0.027   4.933   2.964  0.0865 -0.1333 -0.0522
 9690SOL    HW131064  -0.064   4.921   2.992 -0.0583 -0.5440 -0.6726
 9690SOL    HW231065   0.058   4.844   2.945  0.0216  0.1548 -1.6300
 9691SOL     OW31066   8.841   5.539   2.703 -0.4033 -0.5345  0.1993
 9691SOL    HW131067   8.925   5.541   2.749 -1.0107 -1.0765  1.3797
 9691SOL    HW231068   8.791   5.472   2.749 -1.1997 -0.7799 -0.9999
 9692SOL     OW31069   4.595   0.815   0.706  0.2846 -0.3493  0.2631
 9692SOL    HW131070   4.647   0.740   0.677  1.3177  0.7756 -0.9673
 9692SOL    HW231071   4.520   0.816   0.647  1.3049  0.7010 -1.0989
 9693SOL     OW31072   0.695   8.032   3.043  0.0450  0.5369  0.7635
 9693SOL    HW131073   0.713   8.126   3.040  0.4020  0.4625 -0.7548
 9693SOL    HW231074   0.763   7.994   2.987 -1.1520 -0.4275 -0.0930
 9694SOL     OW31075   2.923   7.209   8.701 -0.7939  0.5842  0.3157
 9694SOL    HW131076   2.952   7.258   8.624 -1.6170  2.4021  1.0825
 9694SOL    HW231077   3.000   7.162   8.731 -0.1458  0.8310 -0.9096
 9695SOL     OW31078   0.479   2.448   6.028  0.2098 -0.0172 -0.0894
 9695SOL    HW131079   0.530   2.367   6.034 -0.5208 -0.4757 -0.0425
 9695SOL    HW231080   0.407   2.427   5.970  1.0370  1.1516 -1.6283
 9696SOL     OW31081   6.190   8.574   6.666  0.5109  0.1635 -0.0271
 9696SOL    HW131082   6.212   8.536   6.751  1.4420  1.1833  0.2161
 9696SOL    HW231083   6.191   8.669   6.681 -0.7800  0.3375 -0.8419
 9697SOL     OW31084   6.576   0.790   8.139 -0.2232 -0.2756 -0.1877
 9697SOL    HW131085   6.529   0.708   8.154  0.4556 -0.4759  0.9760
 9697SOL    HW231086   6.513   0.845   8.091 -1.7037 -0.4903  1.3947
 9698SOL     OW31087   8.309   7.986   1.477 -0.1163  0.5992 -0.4156
 9698SOL    HW131088   8.308   7.926   1.552 -0.8012 -0.2054 -1.0430
 9698SOL    HW231089   8.217   7.998   1.455  0.0127  1.8834 -0.3269
 9699SOL     OW31090   3.811   1.052   8.649 -0.5647 -0.3953  0.1347
 9699SOL    HW131091   3.901   1.083   8.640 -1.0759  1.4420  0.8714
 9699SOL    HW231092   3.819   0.961   8.678  1.0295 -0.5072 -0.5574
 9700SOL     OW31093   7.805   3.107   5.207 -0.3691 -0.3724  0.2327
 9700SOL    HW131094   7.750   3.065   5.274 -0.8459  0.9040  0.6746
 9700SOL    HW231095   7.792   3.053   5.129 -1.7558 -0.4797  0.5045
 9701SOL     OW31096   3.185   7.211   1.329 -0.2946  0.2854  0.6423
 9701SOL    HW131097   3.200   7.232   1.421  0.0165 -0.3686  0.7434
 9701SOL    HW231098   3.126   7.136   1.330  0.4614 -0.3250  0.3321
 9702SOL     OW31099   7.633   1.173   0.827 -0.1595  0.1413 -0.4450
 9702SOL    HW131100   7.586   1.252   0.802  0.0086  0.0741 -0.9737
 9702SOL    HW231101   7.684   1.149   0.750 -0.1512 -0.4419 -0.2643
 9703SOL     OW31102   2.071   5.290   4.562  0.0029 -0.1695  0.2446
 9703SOL    HW131103   2.090   5.383   4.553  1.4099 -0.4632  0.0071
 9703SOL    HW231104   1.998   5.274   4.502 -1.1359  1.0100  1.2388
 9704SOL     OW31105   6.405   2.750   8.618 -0.4444  0.1385  0.4850
 9704SOL    HW131106   6.377   2.834   8.654 -0.2688  0.2153  0.4416
 9704SOL    HW231107   6.420   2.695   8.695  1.2179  0.7009  0.5967
 9705SOL     OW31108   6.008   0.749   5.597 -0.1811 -0.4998  0.5341
 9705SOL    HW131109   5.941   0.685   5.576  0.2750 -1.4265  1.7985
 9705SOL    HW231110   6.036   0.727   5.686  3.0155 -1.2538 -0.5104
 9706SOL     OW31111   6.391   5.428   3.817 -0.4905 -0.7779  0.2618
 9706SOL    HW131112   6.307   5.413   3.774  0.5311  2.3428 -3.4399
 9706SOL    HW231113   6.368   5.451   3.907 -3.2260 -3.1734  0.3383
 9707SOL     OW31114   8.873   7.669   5.479  0.2883  0.2576 -0.3415
 9707SOL    HW131115   8.931   7.623   5.418  0.6481  0.7297 -0.3564
 9707SOL    HW231116   8.798   7.610   5.489 -0.1289  0.4998 -1.8200
 9708SOL     OW31117   8.492   0.178   8.403  0.2513  0.0603  0.7259
 9708SOL    HW131118   8.451   0.105   8.356 -1.0497  1.1015  0.1738
 9708SOL    HW231119   8.418   0.230   8.436  1.0714  2.2783 -0.7020
 9709SOL     OW31120   1.985   7.225   3.598  0.1649 -0.7766 -0.1042
 9709SOL    HW131121   1.945   7.308   3.623 -1.3456 -1.1370 -1.1591
 9709SOL    HW231122   2.038   7.245   3.521  1.1012 -0.5084  0.6025
 9710SOL     OW31123   4.148   6.644   6.540  0.2405 -0.3615  0.1097
 9710SOL    HW131124   4.176   6.685   6.622 -0.4166 -1.2638  0.8113
 9710SOL    HW231125   4.143   6.716   6.477 -0.8728  0.6357  1.2855
 9711SOL     OW31126   0.543   6.915   8.048  0.0209  0.1596  0.2934
 9711SOL    HW131127   0.522   7.009   8.048 -0.0661  0.1720 -1.6101
 9711SOL    HW231128   0.460   6.873   8.072 -0.4521  0.5103 -0.6476
 9712SOL     OW31129   6.315   7.890   4.148  0.2979 -0.1910 -0.3610
 9712SOL    HW131130   6.399   7.936   4.154 -0.2902  0.8228  0.6523
 9712SOL    HW231131   6.252   7.959   4.128 -0.5640 -0.5828  0.8788
 9713SOL     OW31132   0.727   4.535   7.189 -0.5455  0.2879  0.3505
 9713SOL    HW131133   0.684   4.449   7.194 -1.0368  0.5872  1.6507
 9713SOL    HW231134   0.656   4.596   7.171 -0.0689  0.3519 -1.5313
 9714SOL     OW31135   3.697   1.475   6.182 -0.0192  0.2525  0.0530
 9714SOL    HW131136   3.701   1.508   6.272  0.7190  0.1383  0.0651
 9714SOL    HW231137   3.708   1.553   6.127 -0.3259  0.3017  0.0574
 9715SOL     OW31138   7.711   2.770   4.223  0.2569  0.6373 -0.0897
 9715SOL    HW131139   7.618   2.752   4.233  0.1371  0.6405 -1.1101
 9715SOL    HW231140   7.718   2.816   4.140  1.2957 -0.3345 -0.5650
 9716SOL     OW31141   6.191   7.650   7.506  0.0239 -0.2358 -0.0323
 9716SOL    HW131142   6.121   7.662   7.442 -0.7491  2.4049  1.1958
 9716SOL    HW231143   6.205   7.555   7.508 -1.2083 -0.5755 -2.6848
 9717SOL     OW31144   1.923   1.446   3.910  0.3223  0.1852 -0.0709
 9717SOL    HW131145   1.955   1.370   3.860 -2.3269 -0.6637 -0.6389
 9717SOL    HW231146   1.922   1.416   4.001 -0.3457 -0.3452 -0.2457
 9718SOL     OW31147   3.964   7.017   2.554 -0.3298  0.0180 -0.0145
 9718SOL    HW131148   3.902   7.076   2.511 -0.8737 -1.9367 -2.1077
 9718SOL    HW231149   4.044   7.069   2.561 -1.2199  1.5051 -0.3512
 9719SOL     OW31150   7.758   3.006   6.586  0.6816 -0.5598  0.5933
 9719SOL    HW131151   7.688   3.006   6.651 -0.7304 -2.7110 -0.8124
 9719SOL    HW231152   7.725   3.060   6.515  0.3954 -1.6399 -0.1061
 9720SOL     OW31153   2.390   3.562   6.313  0.0264  0.1261  0.0644
 9720SOL    HW131154   2.382   3.630   6.246  0.1194  0.4317  0.3591
 9720SOL    HW231155   2.470   3.584   6.361 -0.6938  0.6456  1.0731
 9721SOL     OW31156   3.321   8.827   8.418  0.2424  0.5170 -0.3756
 9721SOL    HW131157   3.409   8.863   8.416  0.5888 -0.2851 -0.0820
 9721SOL    HW231158   3.305   8.798   8.328  0.9790 -0.9458 -0.0570
 9722SOL     OW31159   0.505   2.888   0.422  0.0087 -0.0258  0.1780
 9722SOL    HW131160   0.493   2.833   0.345  0.4508  0.3866 -0.1924
 9722SOL    HW231161   0.588   2.860   0.460 -0.4550 -0.5808  0.8093
 9723SOL     OW31162   0.384   6.194   4.135 -0.3803 -0.4577  0.3203
 9723SOL    HW131163   0.471   6.218   4.101 -0.7241 -0.8631 -0.8848
 9723SOL    HW231164   0.325   6.260   4.099 -0.4036  0.7088  2.3370
 9724SOL     OW31165   2.968   5.878   0.070  0.7466 -0.1538 -0.1899
 9724SOL    HW131166   3.062   5.882   0.052  0.6254 -2.4971 -1.9342
 9724SOL    HW231167   2.928   5.930   0.001  0.7198 -0.2484 -0.2465
 9725SOL     OW31168   2.472   0.603   0.611  0.2138 -0.2747 -0.0470
 9725SOL    HW131169   2.559   0.642   0.613  0.5414 -0.9939  0.2645
 9725SOL    HW231170   2.471   0.542   0.685  0.9609 -3.3589 -2.3307
 9726SOL     OW31171   0.023   4.133   5.185 -0.2678  0.2859  0.6601
 9726SOL    HW131172  -0.030   4.147   5.106 -1.6616 -0.4994  1.4115
 9726SOL    HW231173   0.026   4.038   5.195  1.5411  0.2865  0.5144
 9727SOL     OW31174   2.608   5.556   8.690  0.1110 -0.4596 -0.4169
 9727SOL    HW131175   2.606   5.573   8.785 -1.5292 -1.7037 -0.1675
 9727SOL    HW231176   2.529   5.599   8.657 -1.2127 -2.8676 -0.6106
 9728SOL     OW31177   0.567   6.728   0.984  0.3199  0.4661  0.3517
 9728SOL    HW131178   0.515   6.725   1.064 -0.7188  1.9705 -0.2451
 9728SOL    HW231179   0.573   6.820   0.962 -2.0194 -0.0076 -2.9507
 9729SOL     OW31180   7.575   8.546   7.570  0.4289  1.1968 -0.1749
 9729SOL    HW131181   7.512   8.607   7.533  0.2736  0.3278 -1.3745
 9729SOL    HW231182   7.559   8.463   7.525  0.9805  0.3849  1.0530
 9730SOL     OW31183   3.770   7.238   6.697  0.4667 -0.1424  0.1260
 9730SOL    HW131184   3.742   7.327   6.718 -0.4459 -0.3940  0.0008
 9730SOL    HW231185   3.788   7.240   6.603 -0.1502 -0.2359  0.0003
 9731SOL     OW31186   6.857   7.029   6.534 -0.0658 -0.3002  0.1593
 9731SOL    HW131187   6.804   7.017   6.613 -0.8183 -0.9485 -0.4349
 9731SOL    HW231188   6.823   7.109   6.494 -2.1741 -1.8521 -1.3885
 9732SOL     OW31189   6.431   5.977   0.194  0.4617 -0.4929  0.6361
 9732SOL    HW131190   6.427   6.070   0.173  0.2161 -0.4274  0.9693
 9732SOL    HW231191   6.525   5.957   0.194  0.5970  0.0512  1.8089
 9733SOL     OW31192   3.897   0.022   7.212 -0.1943 -0.3253  0.3616
 9733SOL    HW131193   3.964   0.024   7.280 -0.7016  1.1141  0.8651
 9733SOL    HW231194   3.922   0.094   7.153 -1.3480  0.3281  0.6370
 9734SOL     OW31195   8.252   4.723   1.254 -0.1766  0.2623 -0.4969
 9734SOL    HW131196   8.246   4.643   1.202 -0.0228 -0.5442  0.6635
 9734SOL    HW231197   8.211   4.700   1.338  2.1685  0.5283  0.8247
 9735SOL     OW31198   2.701   4.802   0.589 -0.2243 -0.4920  0.0644
 9735SOL    HW131199   2.676   4.870   0.527 -1.8421  0.0023  1.2045
 9735SOL    HW231200   2.750   4.739   0.537 -1.7557 -0.2354 -1.7669
 9736SOL     OW31201   4.295   8.223   5.251  0.3550 -0.4948 -0.4585
 9736SOL    HW131202   4.328   8.135   5.268  0.7272 -0.1827  0.4784
 9736SOL    HW231203   4.226   8.235   5.317 -0.5488 -0.5439 -1.3758
 9737SOL     OW31204   6.441   3.601   1.003  0.1054 -0.7548  0.0474
 9737SOL    HW131205   6.533   3.611   1.027 -0.2791  0.0721  1.2935
 9737SOL    HW231206   6.439   3.617   0.909  1.2991 -1.3128 -0.0955
 9738SOL     OW31207   0.219   6.025   3.362  0.5386 -0.0458 -0.3073
 9738SOL    HW131208   0.156   5.983   3.422 -0.4356 -0.6647 -1.6904
 9738SOL    HW231209   0.301   5.978   3.377  0.1904 -0.5187  0.1750
 9739SOL     OW31210   3.313   1.757   6.752  0.2036  0.0068  0.0598
 9739SOL    HW131211   3.298   1.699   6.826  1.3590 -0.9038 -0.3770
 9739SOL    HW231212   3.293   1.703   6.675 -0.5549  0.7961 -0.3076
 9740SOL     OW31213   5.099   3.194   3.279 -0.1336  0.2474 -0.1968
 9740SOL    HW131214   5.016   3.232   3.252 -0.5232 -0.8584 -0.6146
 9740SOL    HW231215   5.102   3.108   3.236  1.0872  0.1423  0.0474
 9741SOL     OW31216   3.504   2.186   6.196 -0.5368 -0.2445 -0.2710
 9741SOL    HW131217   3.448   2.160   6.122 -0.4356 -1.7108  0.1244
 9741SOL    HW231218   3.498   2.112   6.256 -0.1778  0.6937  0.9478
 9742SOL     OW31219   1.518   1.672   0.375  0.1245 -0.2676  0.5624
 9742SOL    HW131220   1.481   1.589   0.344 -1.6877  0.9103 -0.6242
 9742SOL    HW231221   1.567   1.649   0.454  0.0391 -2.5143  0.0141
 9743SOL     OW31222   4.087   7.360   2.010 -0.1410 -0.6174 -0.6097
 9743SOL    HW131223   4.105   7.305   2.086  0.9961  0.4018 -0.1016
 9743SOL    HW231224   4.140   7.321   1.939  0.0998 -0.6017 -0.4402
 9744SOL     OW31225   7.868   8.243   5.336 -0.6777  0.0369 -0.2229
 9744SOL    HW131226   7.922   8.173   5.373 -1.1260  0.3899  1.1383
 9744SOL    HW231227   7.932   8.304   5.298 -0.0109  0.7105  1.8208
 9745SOL     OW31228   6.693   1.891   8.379  0.2241 -0.7458  0.0587
 9745SOL    HW131229   6.678   1.798   8.394 -2.0879 -0.9971 -2.9021
 9745SOL    HW231230   6.774   1.894   8.327 -0.4269 -1.3094 -1.0439
 9746SOL     OW31231   2.070   4.783   8.581 -0.1661  0.1012  0.7855
 9746SOL    HW131232   2.136   4.727   8.622 -0.5218 -0.5129  0.5310
 9746SOL    HW231233   1.988   4.737   8.595 -0.3663  0.1746 -0.1012
 9747SOL     OW31234   6.494   3.142   7.359 -0.5594 -0.1592  0.4098
 9747SOL    HW131235   6.508   3.237   7.364 -1.7234 -0.0057  1.4908
 9747SOL    HW231236   6.580   3.104   7.377 -0.2195  0.7010  0.6590
 9748SOL     OW31237   4.716   5.794   7.338  0.5406  0.0715  0.3227
 9748SOL    HW131238   4.642   5.779   7.397 -0.8592 -0.4130 -1.4440
 9748SOL    HW231239   4.708   5.887   7.314  1.7203  0.5404  1.6295
 9749SOL     OW31240   6.296   7.060   3.995 -0.4916 -0.5023 -0.4274
 9749SOL    HW131241   6.324   7.116   3.922 -0.9842  1.0000  0.4839
 9749SOL    HW231242   6.232   7.113   4.043 -1.5526 -2.1603  0.0661
 9750SOL     OW31243   0.247   0.056   0.479 -0.1061 -0.1130 -0.5738
 9750SOL    HW131244   0.236   0.027   0.570 -1.6580 -0.5146 -0.8597
 9750SOL    HW231245   0.311   0.127   0.485  1.6376 -1.6701  0.5030
 9751SOL     OW31246   8.635   0.475   3.358  0.3720 -0.1737 -0.4507
 9751SOL    HW131247   8.675   0.504   3.276  1.3538 -0.9736 -0.2814
 9751SOL    HW231248   8.667   0.538   3.423  2.5712 -1.5778 -0.0677
 9752SOL     OW31249   6.023   6.072   6.572 -0.1058  0.3423 -0.1547
 9752SOL    HW131250   6.064   5.995   6.534  1.4525  0.5135  1.0985
 9752SOL    HW231251   5.944   6.086   6.519  0.1324 -1.4773 -1.0451
 9753SOL     OW31252   4.093   7.060   3.890 -0.0460 -0.1089  0.0450
 9753SOL    HW131253   4.010   7.069   3.938 -0.3541 -1.4106 -0.1978
 9753SOL    HW231254   4.136   7.145   3.901 -1.0458  0.3234  0.8576
 9754SOL     OW31255   0.083   7.077   6.142  0.1680  0.1896 -0.2970
 9754SOL    HW131256   0.004   7.082   6.088  0.2304 -1.0731 -0.5381
 9754SOL    HW231257   0.050   7.080   6.232 -0.1165  0.1077 -0.3961
 9755SOL     OW31258   7.521   8.215   6.420 -0.3000 -0.4787  0.0849
 9755SOL    HW131259   7.443   8.166   6.446 -0.4254 -0.7844 -0.8550
 9755SOL    HW231260   7.584   8.148   6.394 -0.3812 -0.1685 -0.9608
 9756SOL     OW31261   4.923   3.190   2.277 -0.0693 -0.1654  0.1844
 9756SOL    HW131262   5.011   3.158   2.298 -0.1533 -0.7388 -0.2999
 9756SOL    HW231263   4.937   3.267   2.223  0.1374  0.4866  1.1327
 9757SOL     OW31264   2.033   7.145   2.767 -0.0098  0.0211  0.1451
 9757SOL    HW131265   1.981   7.102   2.700  1.0964  0.0270 -0.7465
 9757SOL    HW231266   2.014   7.097   2.847  1.0961 -2.1256 -0.7966
 9758SOL     OW31267   6.612   3.185   4.501 -0.7881 -0.5888  0.1858
 9758SOL    HW131268   6.574   3.273   4.509  0.6175  0.1347 -0.6803
 9758SOL    HW231269   6.612   3.167   4.407  2.0530 -0.0127 -0.0188
 9759SOL     OW31270   3.215   5.134   6.733 -0.1149 -0.1760  0.5809
 9759SOL    HW131271   3.202   5.186   6.813 -1.2159  0.3933  0.0674
 9759SOL    HW231272   3.129   5.094   6.717  0.1589 -0.4792 -0.1739
 9760SOL     OW31273   3.461   7.238   1.674  0.1812  0.0166  0.6370
 9760SOL    HW131274   3.430   7.328   1.661 -0.9216 -0.5776 -1.2426
 9760SOL    HW231275   3.428   7.214   1.761 -3.2597  0.0682 -0.4848
 9761SOL     OW31276   8.170   3.553   8.284 -0.9459 -0.1398  0.4307
 9761SOL    HW131277   8.193   3.529   8.374 -1.5913  0.2812  0.7165
 9761SOL    HW231278   8.229   3.501   8.230  0.1179  0.3182  1.1086
 9762SOL     OW31279   3.332   0.605   3.827 -0.3853 -0.1143  0.3636
 9762SOL    HW131280   3.425   0.625   3.838 -0.1744 -0.9887  0.2185
 9762SOL    HW231281   3.293   0.689   3.802  0.3699  0.2438  0.3387
 9763SOL     OW31282   2.998   4.747   2.025 -0.3520 -0.1634  0.2125
 9763SOL    HW131283   2.914   4.770   1.987  0.6144 -0.7079 -2.4578
 9763SOL    HW231284   2.985   4.659   2.061 -1.5255  0.7102  2.0294
 9764SOL     OW31285   4.549   2.206   6.747  0.7681 -0.1440 -0.7730
 9764SOL    HW131286   4.495   2.172   6.819 -0.0090  1.6137 -0.4759
 9764SOL    HW231287   4.596   2.129   6.715 -0.9074 -1.5000 -0.1675
 9765SOL     OW31288   8.122   0.687   5.986  0.0613  0.5686 -0.2626
 9765SOL    HW131289   8.200   0.634   5.970  1.3584  2.6857 -1.3855
 9765SOL    HW231290   8.153   0.760   6.039 -1.4622  0.7580  0.4291
 9766SOL     OW31291   0.469   0.661   0.947 -0.2400 -0.3251 -0.3499
 9766SOL    HW131292   0.476   0.621   1.034 -1.1198  1.7352  0.7256
 9766SOL    HW231293   0.501   0.593   0.887  1.3239 -1.4501  1.6456
 9767SOL     OW31294   2.093   2.645   7.007  0.5599 -0.3327 -0.3180
 9767SOL    HW131295   2.174   2.628   7.056  0.3580  1.2943  0.6452
 9767SOL    HW231296   2.122   2.661   6.918  1.1113 -1.5618 -0.3825
 9768SOL     OW31297   1.338   5.961   5.716 -0.1880 -0.4140 -0.3279
 9768SOL    HW131298   1.361   5.940   5.626 -0.4593 -2.8714  0.0960
 9768SOL    HW231299   1.419   5.951   5.765 -0.5522 -1.7029  0.0543
 9769SOL     OW31300   7.220   0.813   6.441 -0.0350 -0.3109  0.2922
 9769SOL    HW131301   7.275   0.740   6.410  0.9468 -1.0193  3.3133
 9769SOL    HW231302   7.247   0.888   6.388  0.9537 -1.5156 -0.9952
 9770SOL     OW31303   5.119   4.472   0.643  0.5163  0.0886 -0.7213
 9770SOL    HW131304   5.065   4.406   0.687  2.3726 -0.4963  0.8046
 9770SOL    HW231305   5.132   4.437   0.555 -1.4567  0.2087 -1.1146
 9771SOL     OW31306   0.858   4.306   5.351 -0.0052  0.3362 -0.0781
 9771SOL    HW131307   0.798   4.337   5.283 -1.7656 -1.0868  0.7734
 9771SOL    HW231308   0.815   4.327   5.433  0.0624 -1.7196  0.5452
 9772SOL     OW31309   4.436   0.066   5.608  0.5633 -0.3972  0.5164
 9772SOL    HW131310   4.351   0.074   5.565  0.4422  1.0849  0.9841
 9772SOL    HW231311   4.418   0.018   5.688  0.0630  0.3544  0.8596
 9773SOL     OW31312   7.304   1.098   5.414  0.1215  0.2521 -0.5202
 9773SOL    HW131313   7.301   1.070   5.505  1.5932 -0.7666 -0.7467
 9773SOL    HW231314   7.379   1.158   5.409 -0.7077  1.2930 -0.8231
 9774SOL     OW31315   1.193   6.014   3.533  0.3657 -0.0911 -0.5437
 9774SOL    HW131316   1.214   5.921   3.526  0.0334 -0.2874  0.8681
 9774SOL    HW231317   1.105   6.021   3.496 -0.2231 -0.6129  0.7117
 9775SOL     OW31318   6.444   6.653   1.905 -0.1270  0.1318  0.2162
 9775SOL    HW131319   6.454   6.594   1.830  0.4238  0.6936 -0.1655
 9775SOL    HW231320   6.510   6.624   1.968  2.9809  2.7073 -1.5615
 9776SOL     OW31321   1.892   1.195   0.516 -0.2357  0.0963 -0.1025
 9776SOL    HW131322   1.985   1.206   0.499 -0.2678 -0.0859 -0.4036
 9776SOL    HW231323   1.863   1.130   0.452  0.1292 -2.4881  2.1765
 9777SOL     OW31324   1.518   4.993   3.938  0.2001  0.3234  0.1245
 9777SOL    HW131325   1.566   5.011   4.019 -0.5369 -0.7874  0.8393
 9777SOL    HW231326   1.435   5.040   3.949  0.7403  1.5577 -0.7511
 9778SOL     OW31327   7.460   8.533   2.967 -0.1570  0.2146 -0.3339
 9778SOL    HW131328   7.390   8.484   2.924  0.9468 -0.0650 -1.9220
 9778SOL    HW231329   7.428   8.623   2.972 -0.4453  0.1945 -1.5258
 9779SOL     OW31330   1.096   1.160   3.714  0.1574  0.1383  0.1991
 9779SOL    HW131331   1.062   1.139   3.801 -0.1252  0.8588  0.2676
 9779SOL    HW231332   1.184   1.122   3.713 -0.1922 -0.7128  0.4458
 9780SOL     OW31333   4.107   8.718   5.009 -0.3018 -0.6835 -0.7757
 9780SOL    HW131334   4.034   8.720   5.070 -0.2148 -2.1405 -0.5925
 9780SOL    HW231335   4.067   8.725   4.923 -0.5535 -0.2564 -0.6265
 9781SOL     OW31336   0.278   6.002   7.981  0.0354  0.0666  0.3344
 9781SOL    HW131337   0.343   6.054   8.028 -0.0223 -0.9439  1.5886
 9781SOL    HW231338   0.198   6.013   8.032  0.5022 -2.8485  1.8849
 9782SOL     OW31339   6.879   5.614   1.647  0.0667  0.2020  0.3368
 9782SOL    HW131340   6.955   5.650   1.693  0.1359  1.1278 -0.4598
 9782SOL    HW231341   6.895   5.634   1.555 -1.9204  2.0044  0.3048
 9783SOL     OW31342   6.869   2.016   1.799  0.0490 -0.7952 -0.4006
 9783SOL    HW131343   6.963   1.999   1.799  0.3149  0.5476  0.0148
 9783SOL    HW231344   6.831   1.941   1.753  1.3480 -1.1550 -0.9349
 9784SOL     OW31345   1.509   1.942   8.083 -0.3832  0.1369  0.2569
 9784SOL    HW131346   1.429   1.994   8.080  0.3950  1.6111  2.3132
 9784SOL    HW231347   1.532   1.926   7.992 -1.5725  2.0176 -0.4260
 9785SOL     OW31348   4.664   0.632   7.561  0.0450 -0.7371 -0.2685
 9785SOL    HW131349   4.606   0.599   7.492 -0.7481 -0.3785  0.2107
 9785SOL    HW231350   4.744   0.656   7.515 -0.0835 -1.4798 -0.9119
 9786SOL     OW31351   6.746   5.163   8.076  0.1206 -0.3015 -0.0257
 9786SOL    HW131352   6.715   5.160   7.986 -1.0560 -0.2091  0.3612
 9786SOL    HW231353   6.813   5.095   8.081  0.2437 -0.2633 -0.9745
 9787SOL     OW31354   8.881   4.193   2.620 -0.7382 -0.6659  0.1123
 9787SOL    HW131355   8.853   4.285   2.621 -1.4162 -0.8244 -1.3183
 9787SOL    HW231356   8.963   4.194   2.572  0.0451 -0.6389  1.4070
 9788SOL     OW31357   4.519   6.674   4.260  0.6532  0.3477  0.4268
 9788SOL    HW131358   4.433   6.712   4.277  0.9774  0.5227  1.7374
 9788SOL    HW231359   4.506   6.622   4.180 -0.5033  0.8627  0.2516
 9789SOL     OW31360   7.898   7.296   0.611  0.3967 -0.4652  0.3710
 9789SOL    HW131361   7.900   7.243   0.691 -0.7118  0.8505  1.3457
 9789SOL    HW231362   7.936   7.380   0.638 -2.0494  0.7949  0.2432
 9790SOL     OW31363   6.175   7.626   0.948  0.4853 -0.0240 -0.0962
 9790SOL    HW131364   6.099   7.665   0.991  0.3870 -1.3135  0.9438
 9790SOL    HW231365   6.250   7.666   0.991  0.4323 -2.6546  2.7625
 9791SOL     OW31366   5.294   5.138   4.750 -0.0879 -0.2852  0.2964
 9791SOL    HW131367   5.330   5.126   4.663  1.5595 -0.9153  1.0199
 9791SOL    HW231368   5.330   5.222   4.780 -0.6821 -0.0495  0.3733
 9792SOL     OW31369   0.048   8.872   8.041 -0.3315  0.2707  0.3881
 9792SOL    HW131370  -0.033   8.904   8.083 -0.2029  0.5052  0.4614
 9792SOL    HW231371   0.114   8.936   8.067 -0.3295  0.6515 -0.5095
 9793SOL     OW31372   7.082   6.372   5.818 -0.0781 -1.1103  0.3822
 9793SOL    HW131373   7.010   6.406   5.765  0.4260 -0.8431 -0.1509
 9793SOL    HW231374   7.154   6.362   5.756 -0.1160 -2.8936  0.5817
 9794SOL     OW31375   2.126   7.780   2.157  0.4231 -0.7431  0.1662
 9794SOL    HW131376   2.125   7.686   2.141  0.5192 -0.4985 -1.4557
 9794SOL    HW231377   2.058   7.815   2.100  0.6817  0.2280  0.4303
 9795SOL     OW31378   7.299   7.131   3.722 -0.2739 -0.4230  0.0187
 9795SOL    HW131379   7.325   7.176   3.802  1.6190 -2.3845  0.5929
 9795SOL    HW231380   7.273   7.201   3.662  1.7063  1.3642  1.1349
 9796SOL     OW31381   6.653   7.370   6.681 -0.3968 -0.2528 -0.0959
 9796SOL    HW131382   6.670   7.279   6.705 -0.4744  0.0830  1.3141
 9796SOL    HW231383   6.639   7.368   6.587  0.5983 -1.5500 -0.2299
 9797SOL     OW31384   7.757   1.158   0.595  0.2796 -0.3424 -0.9874
 9797SOL    HW131385   7.732   1.179   0.505  0.7824  0.1764 -1.0119
 9797SOL    HW231386   7.852   1.148   0.592  0.1113 -2.4657 -0.9306
 9798SOL     OW31387   5.949   2.345   7.064 -0.2627  0.9973 -0.2024
 9798SOL    HW131388   6.037   2.317   7.088 -0.1929  0.7318 -0.7495
 9798SOL    HW231389   5.927   2.414   7.127  1.4088  3.0150 -1.6768
 9799SOL     OW31390   4.440   6.894   3.446  0.6701 -0.3094 -0.4397
 9799SOL    HW131391   4.442   6.984   3.414 -3.3307 -0.0026 -0.4288
 9799SOL    HW231392   4.493   6.895   3.526 -1.1354  2.7929  0.9298
 9800SOL     OW31393   8.402   0.617   0.792 -0.0105  0.9417 -0.2273
 9800SOL    HW131394   8.469   0.609   0.724 -0.6700  1.2420 -0.9285
 9800SOL    HW231395   8.321   0.586   0.751  0.0023 -1.1906  1.1716
 9801SOL     OW31396   8.368   0.872   2.850  0.2284  0.6783 -0.0912
 9801SOL    HW131397   8.299   0.929   2.817 -0.3662  0.5431  0.8768
 9801SOL    HW231398   8.419   0.849   2.773 -0.8391  0.7434 -0.8356
 9802SOL     OW31399   7.558   7.638   6.145  0.0751 -0.0206  0.2704
 9802SOL    HW131400   7.577   7.732   6.143 -0.0613  0.0953  2.2586
 9802SOL    HW231401   7.644   7.596   6.137  0.0099  0.1749 -2.2665
 9803SOL     OW31402   4.643   2.835   2.817  0.0359  0.1122  0.1189
 9803SOL    HW131403   4.670   2.899   2.751 -0.7418  0.7066  0.3605
 9803SOL    HW231404   4.715   2.834   2.880 -0.5711  1.9235  0.9320
 9804SOL     OW31405   3.855   3.541   7.880 -0.3110 -0.5108  0.0740
 9804SOL    HW131406   3.810   3.456   7.878  1.1888 -1.3311 -0.8339
 9804SOL    HW231407   3.871   3.562   7.788 -1.8009  1.4387  0.1988
 9805SOL     OW31408   0.456   5.222   6.493  0.2572  0.7111  0.5083
 9805SOL    HW131409   0.447   5.167   6.415  3.1139  1.8486 -0.7486
 9805SOL    HW231410   0.447   5.160   6.566 -0.8086 -0.6693 -0.7207
 9806SOL     OW31411   4.051   2.802   0.791 -0.2744 -0.4095 -0.3152
 9806SOL    HW131412   4.049   2.712   0.759 -1.8102 -0.8785  0.9341
 9806SOL    HW231413   4.143   2.820   0.810  0.1623 -1.3856 -1.4022
 9807SOL     OW31414   2.827   0.110   5.619 -0.4407  0.0211 -0.4296
 9807SOL    HW131415   2.867   0.165   5.686 -0.4021  0.7487 -1.0258
 9807SOL    HW231416   2.840   0.159   5.537  1.6551 -1.9347 -1.3658
 9808SOL     OW31417   2.972   3.181   6.429  0.5398  0.0518 -0.2014
 9808SOL    HW131418   2.974   3.141   6.516  0.5213 -2.1395 -1.1332
 9808SOL    HW231419   3.026   3.123   6.375 -0.2425  0.7895 -1.8617
 9809SOL     OW31420   8.203   5.361   8.256  0.3833  0.2142 -0.0572
 9809SOL    HW131421   8.283   5.412   8.246  0.6254 -0.4756 -2.0345
 9809SOL    HW231422   8.140   5.422   8.294  1.4009  1.2077  0.0717
 9810SOL     OW31423   5.638   7.051   5.810 -0.2459 -0.0972  0.0883
 9810SOL    HW131424   5.686   7.074   5.890  4.2005 -2.0544 -1.7357
 9810SOL    HW231425   5.596   6.967   5.831  1.7880 -1.1516  0.1435
 9811SOL     OW31426   5.258   0.058   2.212  0.5610 -0.0745 -0.2559
 9811SOL    HW131427   5.224   0.146   2.195  0.1930 -0.4089 -1.3964
 9811SOL    HW231428   5.180   0.006   2.232  0.9987  0.3352  2.8812
 9812SOL     OW31429   5.301   3.873   2.799  0.3642  0.1253 -0.5874
 9812SOL    HW131430   5.212   3.907   2.791  0.3582  1.0861  2.4237
 9812SOL    HW231431   5.291   3.785   2.836  0.6525 -0.3699 -1.6425
 9813SOL     OW31432   1.917   7.033   1.314  0.0788  0.1262 -0.2749
 9813SOL    HW131433   1.967   7.030   1.395  1.1997  1.5836 -0.8853
 9813SOL    HW231434   1.838   6.981   1.333  0.4436  0.2014  1.6353
 9814SOL     OW31435   3.079   1.042   3.964 -0.1305 -0.2463 -0.2690
 9814SOL    HW131436   3.099   1.069   3.874 -1.8715  0.5682 -0.4499
 9814SOL    HW231437   2.999   1.091   3.986  0.4293 -0.2194  1.8303
 9815SOL     OW31438   0.927   0.508   5.948 -0.0458  0.4201  0.4241
 9815SOL    HW131439   0.869   0.486   5.874  2.0055  0.1662 -1.2132
 9815SOL    HW231440   0.911   0.438   6.011  0.5910 -1.3738 -1.2927
 9816SOL     OW31441   8.801   8.278   4.774 -0.8141  0.0684 -0.2313
 9816SOL    HW131442   8.771   8.303   4.687  0.6810  0.6971 -0.6113
 9816SOL    HW231443   8.885   8.324   4.784 -0.5302 -0.6997  1.1805
 9817SOL     OW31444   5.587   5.628   7.167  0.7514 -0.1088  0.3058
 9817SOL    HW131445   5.579   5.710   7.119  0.3971  0.4180  1.2335
 9817SOL    HW231446   5.612   5.564   7.100  1.6601  0.8589 -0.3239
 9818SOL     OW31447   2.692   4.251   7.438 -0.2065 -0.4473 -0.2525
 9818SOL    HW131448   2.618   4.198   7.409  0.2035 -0.8245 -0.6124
 9818SOL    HW231449   2.731   4.285   7.358 -0.0550 -0.1629 -0.0599
 9819SOL     OW31450   3.794   0.546   8.862 -0.2830  0.1196  0.1983
 9819SOL    HW131451   3.802   0.453   8.838 -0.5740  0.4367 -1.2125
 9819SOL    HW231452   3.725   0.547   8.928 -0.5269 -0.6259 -0.0298
 9820SOL     OW31453   7.788   0.737   1.364  0.2341  0.0062  0.1689
 9820SOL    HW131454   7.723   0.807   1.364  0.8032  0.5829 -1.2149
 9820SOL    HW231455   7.841   0.754   1.286  1.6465 -0.8194  0.9101
 9821SOL     OW31456   0.714   3.838   8.842  0.2643 -0.4243 -0.4475
 9821SOL    HW131457   0.625   3.839   8.877  0.3957 -1.4392 -0.0668
 9821SOL    HW231458   0.714   3.908   8.777 -0.3678  0.6129  0.6263
 9822SOL     OW31459   0.663   7.925   6.553  0.5754 -0.2224 -0.3374
 9822SOL    HW131460   0.597   7.993   6.562  1.3178  0.6106 -0.9974
 9822SOL    HW231461   0.613   7.846   6.533 -0.1944  0.5252 -1.4787
 9823SOL     OW31462   5.829   7.269   4.025 -0.1904  0.1582 -0.3558
 9823SOL    HW131463   5.781   7.287   4.105 -0.8391 -0.4718 -0.5935
 9823SOL    HW231464   5.765   7.227   3.967  0.3252  0.4040 -1.1218
 9824SOL     OW31465   4.545   5.141   8.135 -0.2563 -0.5608  0.8426
 9824SOL    HW131466   4.574   5.091   8.211  3.1735  1.0043  0.7592
 9824SOL    HW231467   4.619   5.137   8.073 -2.1101 -0.0892 -1.5672
 9825SOL     OW31468   1.280   5.824   2.660 -0.3789 -0.2725  0.1464
 9825SOL    HW131469   1.266   5.784   2.746  0.8298 -0.0680  0.4556
 9825SOL    HW231470   1.317   5.910   2.679 -0.3083 -0.1334 -0.5781
 9826SOL     OW31471   3.093   0.031   4.342  0.2219 -0.0539  0.1547
 9826SOL    HW131472   2.999   0.040   4.324  0.4821  1.1389 -0.7772
 9826SOL    HW231473   3.122   0.120   4.362  1.0313 -0.5199  1.1131
 9827SOL     OW31474   5.184   8.337   0.813 -0.3776 -0.5636 -0.0415
 9827SOL    HW131475   5.197   8.306   0.724 -0.1899 -2.6676  0.6661
 9827SOL    HW231476   5.094   8.368   0.815 -0.5682 -1.0488 -0.8190
 9828SOL     OW31477   8.623   6.187   0.759  0.1218  0.0768 -0.6988
 9828SOL    HW131478   8.660   6.266   0.798 -0.2212 -0.2582  0.3466
 9828SOL    HW231479   8.532   6.210   0.741  0.0871  0.0051 -0.6177
 9829SOL     OW31480   2.522   0.838   4.888  0.0069  0.1955  0.3803
 9829SOL    HW131481   2.540   0.775   4.958  1.5443 -0.0330 -0.1851
 9829SOL    HW231482   2.589   0.905   4.899 -0.3166  0.6407 -0.3015
 9830SOL     OW31483   1.075   2.589   8.400  0.2056  0.1851  0.6706
 9830SOL    HW131484   1.062   2.576   8.307 -1.1631 -1.4447  1.0368
 9830SOL    HW231485   1.167   2.570   8.415  0.5231  0.8229 -0.3786
 9831SOL     OW31486   7.851   8.260   8.132  0.3994 -0.5318 -0.2648
 9831SOL    HW131487   7.764   8.229   8.107 -0.1908 -1.0764  2.2052
 9831SOL    HW231488   7.903   8.255   8.052 -1.9098  0.1113 -1.8734
 9832SOL     OW31489   4.636   3.390   8.886 -0.4658 -0.0125 -0.2114
 9832SOL    HW131490   4.554   3.435   8.867 -0.9301 -0.5475  0.4905
 9832SOL    HW231491   4.633   3.310   8.834 -2.2510 -2.0482  2.7442
 9833SOL     OW31492   8.068   7.116   5.586 -0.2868  0.1497  0.3573
 9833SOL    HW131493   8.011   7.192   5.581 -0.6245 -0.0108  1.4985
 9833SOL    HW231494   8.129   7.126   5.513 -0.5424  1.3246  0.2977
 9834SOL     OW31495   2.354   2.865   1.488  0.4369 -0.0049 -0.0974
 9834SOL    HW131496   2.317   2.861   1.576  0.3040 -1.5658 -0.2043
 9834SOL    HW231497   2.345   2.957   1.463 -1.0546  0.1481  0.8708
 9835SOL     OW31498   5.761   6.340   7.823 -0.7131 -0.4303  0.6771
 9835SOL    HW131499   5.825   6.287   7.774 -1.9071 -0.9428 -0.3687
 9835SOL    HW231500   5.695   6.278   7.851 -1.5953  0.3413  0.3421
 9836SOL     OW31501   6.174   6.833   0.285 -0.3325  0.4771 -0.0046
 9836SOL    HW131502   6.232   6.883   0.227  0.3639  1.4540  1.4517
 9836SOL    HW231503   6.203   6.743   0.276  0.7735  0.8194 -0.0552
 9837SOL     OW31504   8.086   4.870   5.770  0.1840 -0.3131 -0.1283
 9837SOL    HW131505   8.034   4.922   5.831  0.9068  0.4126 -0.1058
 9837SOL    HW231506   8.030   4.859   5.694 -0.4024 -0.4806  0.3224
 9838SOL     OW31507   1.688   8.433   1.999 -0.1389 -0.1037 -0.4293
 9838SOL    HW131508   1.743   8.507   1.973 -2.6681  2.2791  0.5201
 9838SOL    HW231509   1.710   8.417   2.091  0.6498 -0.8088 -0.7287
 9839SOL     OW31510   4.388   8.654   3.074  0.5711 -0.4436  0.3230
 9839SOL    HW131511   4.464   8.631   3.019 -0.8263 -2.4569 -0.9044
 9839SOL    HW231512   4.424   8.661   3.162  2.2057 -1.4320 -0.2066
 9840SOL     OW31513   7.081   0.967   8.719  0.2916 -0.0622 -0.3502
 9840SOL    HW131514   7.128   0.893   8.758  2.6700 -0.3135 -3.3211
 9840SOL    HW231515   7.034   0.929   8.645  0.1859  1.1388 -0.9161
 9841SOL     OW31516   3.447   5.600   6.756 -0.4495 -0.1742 -0.3939
 9841SOL    HW131517   3.401   5.635   6.680 -2.9140 -0.7096  0.7511
 9841SOL    HW231518   3.427   5.506   6.755  1.4496 -0.6342 -0.3296
 9842SOL     OW31519   4.380   0.044   8.196  0.1401 -0.2130  0.7290
 9842SOL    HW131520   4.409  -0.004   8.275 -0.4795 -1.1152  0.4240
 9842SOL    HW231521   4.439   0.014   8.127  0.0138 -0.2174  0.6230
 9843SOL     OW31522   3.566   2.766   1.733  0.2793 -0.3213  0.0296
 9843SOL    HW131523   3.485   2.724   1.704 -0.4102 -0.7127  2.2976
 9843SOL    HW231524   3.539   2.821   1.806  1.5617  2.2393 -1.2776
 9844SOL     OW31525   7.891   6.678   0.099  0.3364  0.0033 -0.5831
 9844SOL    HW131526   7.885   6.584   0.083 -1.1010 -0.3331  1.5366
 9844SOL    HW231527   7.895   6.686   0.194 -1.2894  2.1529 -0.6153
 9845SOL     OW31528   8.075   8.133   6.210 -0.5398  0.5500  0.0359
 9845SOL    HW131529   8.090   8.069   6.140  1.9781 -0.4251  1.3539
 9845SOL    HW231530   8.080   8.218   6.165  0.0455 -0.0634 -1.1098
 9846SOL     OW31531   7.857   8.622   7.693  0.4733  0.3711  0.2736
 9846SOL    HW131532   7.788   8.678   7.729  0.7531  0.2175  1.0527
 9846SOL    HW231533   7.835   8.615   7.600 -1.0353 -0.3559  0.6548
 9847SOL     OW31534   1.877   2.848   2.971  0.1867 -0.6311 -0.0254
 9847SOL    HW131535   1.853   2.852   2.878  1.3641 -0.9427 -0.3622
 9847SOL    HW231536   1.849   2.760   2.999 -2.6985  0.4067  0.6951
 9848SOL     OW31537   7.922   4.911   7.456 -0.7192  0.8387  0.0875
 9848SOL    HW131538   7.992   4.848   7.476  1.3984  3.0483  0.0094
 9848SOL    HW231539   7.925   4.920   7.361 -0.1925  1.9177  0.1995
 9849SOL     OW31540   4.978   5.721   8.774 -0.4696  0.6304  0.4803
 9849SOL    HW131541   5.014   5.643   8.816 -0.6543  0.6498  0.6765
 9849SOL    HW231542   5.038   5.792   8.798 -0.0082  0.4607 -0.1250
 9850SOL     OW31543   6.678   1.290   1.250  0.2774  0.0055 -0.1968
 9850SOL    HW131544   6.641   1.377   1.236 -0.6409 -0.2837  0.3249
 9850SOL    HW231545   6.732   1.298   1.329 -1.5335 -0.3612  1.1477
 9851SOL     OW31546   4.479   0.748   3.818  0.1060  0.1564 -0.2443
 9851SOL    HW131547   4.566   0.787   3.812  0.2086 -0.2631 -1.8896
 9851SOL    HW231548   4.460   0.719   3.729 -0.9027 -1.5335  0.4893
 9852SOL     OW31549   8.639   1.969   2.925 -0.1501  0.2057 -0.0409
 9852SOL    HW131550   8.599   1.907   2.986  1.0847  0.6933  1.3327
 9852SOL    HW231551   8.609   2.055   2.956  0.4600  0.4576 -0.1386
 9853SOL     OW31552   2.338   3.115   8.818 -0.0772  0.0477 -0.2599
 9853SOL    HW131553   2.349   3.047   8.752 -0.4034  1.7034 -2.1375
 9853SOL    HW231554   2.426   3.129   8.853  0.1445 -0.7071 -0.4986
 9854SOL     OW31555   7.643   0.431   4.098 -0.1367  0.1358  0.1079
 9854SOL    HW131556   7.587   0.371   4.050 -2.3393  1.9352  0.2237
 9854SOL    HW231557   7.675   0.493   4.032 -1.9000  1.6779  0.6019
 9855SOL     OW31558   8.126   8.629   2.843 -0.1670 -0.4378 -0.1015
 9855SOL    HW131559   8.160   8.701   2.896 -0.6421 -1.4126  1.6129
 9855SOL    HW231560   8.186   8.556   2.859 -1.0570 -1.1380  0.1906
 9856SOL     OW31561   2.256   0.423   5.924  0.3568 -0.1383 -0.6438
 9856SOL    HW131562   2.334   0.394   5.972 -0.3045 -1.8952 -0.5839
 9856SOL    HW231563   2.247   0.516   5.948  1.5954 -0.2758  0.4885
 9857SOL     OW31564   8.104   7.203   1.460 -0.3595  0.2746 -0.3631
 9857SOL    HW131565   8.089   7.290   1.423  0.1111  0.5669  0.1197
 9857SOL    HW231566   8.031   7.150   1.428 -1.8192  1.3668  1.0254
 9858SOL     OW31567   2.908   4.697   8.191 -0.3055  0.0312 -0.2093
 9858SOL    HW131568   2.846   4.695   8.264  1.8605 -0.8613  1.7160
 9858SOL    HW231569   2.921   4.605   8.169 -0.1326  0.2487 -1.0452
 9859SOL     OW31570   8.069   8.638   5.771 -0.7225  0.3754 -0.3301
 9859SOL    HW131571   7.977   8.617   5.790 -0.7686  1.0027  0.2045
 9859SOL    HW231572   8.102   8.562   5.724 -0.0802 -2.3285  3.9390
 9860SOL     OW31573   2.931   0.735   7.479 -0.2836 -0.6463  0.0201
 9860SOL    HW131574   2.919   0.752   7.385  0.7884 -0.5280 -0.1132
 9860SOL    HW231575   2.899   0.814   7.522 -2.2461 -1.3100 -0.1259
 9861SOL     OW31576   8.197   5.237   2.206 -0.6597  0.4679  0.3600
 9861SOL    HW131577   8.261   5.278   2.148 -2.4678  1.4760 -1.0158
 9861SOL    HW231578   8.117   5.289   2.194 -2.3496 -1.9717  0.4478
 9862SOL     OW31579   8.140   6.461   7.084 -0.1053 -0.3028  0.2761
 9862SOL    HW131580   8.218   6.410   7.061  1.4597  1.9686  0.2299
 9862SOL    HW231581   8.093   6.471   7.001  0.8540  0.3554 -0.2033
 9863SOL     OW31582   1.124   6.310   2.430 -0.6592 -0.0893  0.0862
 9863SOL    HW131583   1.131   6.227   2.383  0.1376 -0.3817  0.6998
 9863SOL    HW231584   1.049   6.298   2.489 -0.6561 -0.3095  0.0459
 9864SOL     OW31585   6.044   6.172   3.921  0.2665  0.4232 -0.8813
 9864SOL    HW131586   6.059   6.236   3.991 -2.2381  0.0982  0.0446
 9864SOL    HW231587   6.102   6.099   3.943 -2.0649 -0.7015  2.3542
 9865SOL     OW31588   2.351   1.093   6.618 -0.4012  0.1957 -0.3144
 9865SOL    HW131589   2.312   1.115   6.533  1.3652  1.4187 -0.8702
 9865SOL    HW231590   2.413   1.163   6.634 -1.0124  0.2328  2.2576
 9866SOL     OW31591   7.647   2.615   1.761  0.0895  0.0709 -0.0613
 9866SOL    HW131592   7.696   2.661   1.694 -1.3984  1.8168 -0.0506
 9866SOL    HW231593   7.712   2.566   1.811  1.5770  1.0605 -0.9838
 9867SOL     OW31594   8.593   8.838   7.824 -0.3204 -0.4797  0.2464
 9867SOL    HW131595   8.502   8.812   7.811 -0.3393  0.3568 -1.5710
 9867SOL    HW231596   8.635   8.759   7.859 -1.7649 -0.7992  1.3565
 9868SOL     OW31597   7.786   6.222   0.074  0.0496  0.1244 -0.2389
 9868SOL    HW131598   7.873   6.189   0.051  0.6048  0.2353  1.5092
 9868SOL    HW231599   7.746   6.151   0.123 -0.7271  0.1998 -0.7558
 9869SOL     OW31600   5.921   1.141   6.950 -0.3415  0.3704  0.3626
 9869SOL    HW131601   5.948   1.207   7.014  2.8919 -0.5426  0.0760
 9869SOL    HW231602   5.986   1.072   6.957  0.3735  0.3102 -4.0708
 9870SOL     OW31603   8.441   6.708   6.099  0.9640  0.0906  0.3831
 9870SOL    HW131604   8.376   6.651   6.139 -0.6825  0.4565 -1.5490
 9870SOL    HW231605   8.518   6.702   6.155 -0.5062 -0.9097  2.3964
 9871SOL     OW31606   0.089   7.187   0.603 -0.1585 -0.2293  0.0308
 9871SOL    HW131607   0.019   7.244   0.634  0.5668  0.4893  0.4070
 9871SOL    HW231608   0.157   7.195   0.670  0.8107  0.1138 -0.9564
 9872SOL     OW31609   3.306   7.780   6.438  0.4121 -0.3373 -0.6333
 9872SOL    HW131610   3.337   7.859   6.483 -1.6527 -0.2221  0.7212
 9872SOL    HW231611   3.375   7.759   6.376  3.3308 -0.2506  2.2960
 9873SOL     OW31612   8.722   1.223   5.269  0.4668  0.0389  0.0388
 9873SOL    HW131613   8.746   1.233   5.177  0.7325 -0.6872  0.0196
 9873SOL    HW231614   8.769   1.293   5.315 -0.2202  0.8480 -0.4539
 9874SOL     OW31615   7.022   5.727   4.753 -0.2681  0.0336 -0.4477
 9874SOL    HW131616   7.005   5.660   4.688 -1.3372  0.5561 -0.7424
 9874SOL    HW231617   6.956   5.794   4.736 -0.3830  0.3224  0.9788
 9875SOL     OW31618   1.666   4.718   2.066 -0.1823 -0.2689  0.3102
 9875SOL    HW131619   1.602   4.681   2.127 -1.7714  2.3556  0.3732
 9875SOL    HW231620   1.751   4.703   2.108 -1.1116  0.1467  2.4750
 9876SOL     OW31621   8.873   5.348   0.914  0.4630 -0.5178 -0.3666
 9876SOL    HW131622   8.857   5.266   0.961 -2.3174  0.4959  0.6912
 9876SOL    HW231623   8.886   5.413   0.984  1.9375  0.0878 -1.1697
 9877SOL     OW31624   4.601   2.972   6.454 -0.3692 -0.7606  0.4767
 9877SOL    HW131625   4.529   2.949   6.396  0.0030  1.5872 -1.0181
 9877SOL    HW231626   4.615   3.065   6.440  3.3837 -1.2299  0.2196
 9878SOL     OW31627   7.310   5.516   8.238 -0.0407  0.0407 -0.5052
 9878SOL    HW131628   7.245   5.475   8.182 -1.1233  0.0920  0.6532
 9878SOL    HW231629   7.274   5.603   8.256  1.7532  1.2084 -2.1618
 9879SOL     OW31630   8.362   5.337   1.476 -0.2185  0.2467 -0.0186
 9879SOL    HW131631   8.321   5.362   1.393  0.8655  1.1891 -0.2977
 9879SOL    HW231632   8.349   5.413   1.533  1.4807  0.7696 -0.2640
 9880SOL     OW31633   0.647   5.789   7.749 -0.4651  0.1040 -0.5294
 9880SOL    HW131634   0.638   5.798   7.654 -1.6748 -0.1778 -0.4655
 9880SOL    HW231635   0.667   5.696   7.762 -1.6018 -0.1486 -0.4575
 9881SOL     OW31636   8.119   4.418   0.961  0.3769  0.3492  0.4971
 9881SOL    HW131637   8.130   4.324   0.952 -1.3459  0.2801 -1.5778
 9881SOL    HW231638   8.160   4.455   0.882 -2.3900  0.9690 -0.7683
 9882SOL     OW31639   4.891   8.375   7.936 -0.1129  0.0581 -0.4890
 9882SOL    HW131640   4.841   8.402   7.859 -1.0623  1.5591  0.5985
 9882SOL    HW231641   4.908   8.456   7.984 -1.9415 -1.0477  2.2689
 9883SOL     OW31642   7.853   1.543   5.099 -0.2431  0.4876  0.0636
 9883SOL    HW131643   7.799   1.562   5.176 -1.0039  0.4670 -0.4544
 9883SOL    HW231644   7.882   1.453   5.112 -0.9365  0.2456  0.0029
 9884SOL     OW31645   3.781   3.305   3.570  0.0423  0.0163  0.1852
 9884SOL    HW131646   3.731   3.280   3.492  0.3680  0.3756 -0.1422
 9884SOL    HW231647   3.854   3.243   3.573  0.2079  0.1986  0.0181
 9885SOL     OW31648   3.766   8.708   4.582  0.6131 -0.5052 -0.1035
 9885SOL    HW131649   3.699   8.684   4.646  0.1953  0.4624 -0.1584
 9885SOL    HW231650   3.848   8.704   4.631  0.5554 -1.8168 -0.0687
 9886SOL     OW31651   6.142   6.618   3.741  0.1286  0.6220  0.1021
 9886SOL    HW131652   6.066   6.604   3.798 -0.5926  0.5648 -0.8512
 9886SOL    HW231653   6.163   6.531   3.707  0.9856  0.5469  0.7966
 9887SOL     OW31654   6.190   3.402   8.180  0.1335 -0.0625  0.9877
 9887SOL    HW131655   6.176   3.464   8.108  2.6539  1.3980  1.6288
 9887SOL    HW231656   6.187   3.316   8.138 -1.4422  0.5536 -0.2849
 9888SOL     OW31657   0.679   2.079   3.549 -0.0107 -0.6641  0.2958
 9888SOL    HW131658   0.618   2.011   3.520  0.5646 -2.0297  2.0627
 9888SOL    HW231659   0.662   2.154   3.492 -2.4980 -1.3979 -0.0310
 9889SOL     OW31660   8.516   4.165   6.836  0.0272  0.4200 -0.0759
 9889SOL    HW131661   8.515   4.118   6.752 -0.7290  1.0733 -0.4408
 9889SOL    HW231662   8.427   4.155   6.870 -0.0972  1.4481 -0.0817
 9890SOL     OW31663   5.439   3.834   6.268  0.1591  0.3609  0.5546
 9890SOL    HW131664   5.527   3.866   6.284  0.4402 -1.2181  2.7112
 9890SOL    HW231665   5.417   3.784   6.347 -1.8607 -1.0260 -0.7716
 9891SOL     OW31666   8.076   2.105   2.929  0.5518  0.1500 -0.0372
 9891SOL    HW131667   8.135   2.178   2.909  1.2287  0.0874  1.5548
 9891SOL    HW231668   7.994   2.127   2.884  0.3076  2.5494  1.4047
 9892SOL     OW31669   7.822   3.546   4.991  0.8012 -0.8311 -0.0093
 9892SOL    HW131670   7.913   3.522   4.978  1.3948  1.8264 -1.4800
 9892SOL    HW231671   7.772   3.480   4.943  1.9547 -1.8649  0.1681
 9893SOL     OW31672   4.452   7.765   0.148  0.2455  0.7126  0.1533
 9893SOL    HW131673   4.515   7.817   0.198  1.2087  0.0147 -0.2864
 9893SOL    HW231674   4.372   7.767   0.200  0.9909  0.6290  1.3451
 9894SOL     OW31675   3.555   1.237   2.544 -0.6427  0.0545 -0.0337
 9894SOL    HW131676   3.613   1.260   2.472  0.6604 -1.0125  0.6363
 9894SOL    HW231677   3.468   1.264   2.514 -0.4142 -1.7801 -2.6957
 9895SOL     OW31678   7.595   0.475   4.908  0.8491 -0.5236 -0.1525
 9895SOL    HW131679   7.616   0.433   4.824 -1.4581  0.6499 -1.4364
 9895SOL    HW231680   7.499   0.476   4.911  0.8142  2.1227  1.0607
 9896SOL     OW31681   6.727   7.195   2.437  0.0402  0.0550  0.6149
 9896SOL    HW131682   6.777   7.113   2.428 -0.9814 -0.5367  0.0981
 9896SOL    HW231683   6.641   7.174   2.402 -0.9951  0.6718  2.6207
 9897SOL     OW31684   1.477   4.187   6.547  0.5579  0.7996  0.0285
 9897SOL    HW131685   1.421   4.219   6.618  1.3777  0.8534  0.6594
 9897SOL    HW231686   1.431   4.213   6.467 -0.5295  0.4674  0.5255
 9898SOL     OW31687   7.736   7.946   3.653 -0.6178  0.6622  0.3188
 9898SOL    HW131688   7.666   7.928   3.715  0.0226  1.1043  1.1843
 9898SOL    HW231689   7.775   8.028   3.683 -0.6465  1.1781 -0.9916
 9899SOL     OW31690   1.823   1.863   2.427  0.2621 -0.0878 -0.3478
 9899SOL    HW131691   1.831   1.792   2.363 -0.5055 -1.6779  1.2153
 9899SOL    HW231692   1.730   1.883   2.429  0.2426 -0.2390  0.4485
 9900SOL     OW31693   2.993   6.815   8.670  0.1931  0.0393 -0.0292
 9900SOL    HW131694   3.026   6.891   8.718  1.4848 -0.5961  0.1355
 9900SOL    HW231695   3.070   6.779   8.626 -0.0333 -2.1362  1.2074
 9901SOL     OW31696   3.083   7.777   2.474  0.0122 -0.1552 -0.2265
 9901SOL    HW131697   3.070   7.758   2.381 -0.8158 -0.1323 -0.1237
 9901SOL    HW231698   3.154   7.841   2.475  0.5019 -0.6755 -0.7940
 9902SOL     OW31699   7.343   1.997   4.634  0.7815 -0.1183 -0.3455
 9902SOL    HW131700   7.284   1.995   4.559 -0.3790 -1.2269  0.5403
 9902SOL    HW231701   7.420   1.948   4.605  0.7663  0.3196 -1.1331
 9903SOL     OW31702   3.090   0.004   1.498 -0.4187 -0.0644  0.3813
 9903SOL    HW131703   3.136   0.058   1.563 -0.5325 -0.1816  0.5600
 9903SOL    HW231704   3.059   0.067   1.433  0.1047  0.0046  0.1883
 9904SOL     OW31705   6.961   3.002   1.631  0.4165 -0.0105 -0.1851
 9904SOL    HW131706   6.935   2.947   1.557  0.3477 -2.1687  1.3443
 9904SOL    HW231707   6.879   3.026   1.673  0.4959  0.4108 -0.2725
 9905SOL     OW31708   2.759   8.860   8.132 -0.1405 -0.3317  0.0228
 9905SOL    HW131709   2.668   8.838   8.115 -0.1335  0.4832 -1.1325
 9905SOL    HW231710   2.767   8.953   8.111  1.1979 -0.6319 -0.9411
 9906SOL     OW31711   5.754   7.316   8.190  1.2253  0.8942 -0.5295
 9906SOL    HW131712   5.726   7.375   8.260  0.4887  1.6186 -1.4128
 9906SOL    HW231713   5.673   7.290   8.147  1.5479 -0.6583 -0.2598
 9907SOL     OW31714   0.916   7.522   1.748 -0.0036  0.4460  0.1738
 9907SOL    HW131715   0.993   7.488   1.703  0.2719 -0.7568  1.4916
 9907SOL    HW231716   0.935   7.615   1.762  2.3274 -0.2872  2.5709
 9908SOL     OW31717   6.100   5.131   0.601 -0.1511  0.7679 -0.6750
 9908SOL    HW131718   6.015   5.149   0.560  0.1924  1.3962 -1.1344
 9908SOL    HW231719   6.164   5.173   0.543  0.4025  1.1129  0.1582
 9909SOL     OW31720   7.208   0.944   3.380 -0.2043 -0.6356 -0.0185
 9909SOL    HW131721   7.195   1.016   3.319  1.1175 -0.9672 -0.7371
 9909SOL    HW231722   7.273   0.977   3.442  0.7447 -1.3168 -0.6098
 9910SOL     OW31723   7.034   2.936   0.728  0.0259 -0.4394  0.2628
 9910SOL    HW131724   7.078   3.011   0.768  0.8615 -0.4162 -0.6655
 9910SOL    HW231725   7.004   2.968   0.643  1.0432 -1.3470 -0.4610
 9911SOL     OW31726   8.807   3.783   8.497  0.5754 -0.3937 -0.1975
 9911SOL    HW131727   8.715   3.810   8.496  0.3429 -0.9117  1.8367
 9911SOL    HW231728   8.806   3.696   8.456 -0.0154 -0.8166  0.6825
 9912SOL     OW31729   2.423   8.294   0.136  0.5941 -0.5734  0.1522
 9912SOL    HW131730   2.465   8.236   0.072  0.2889 -1.6960  0.9418
 9912SOL    HW231731   2.496   8.334   0.183  0.7982 -1.1653  0.3403
 9913SOL     OW31732   4.848   4.616   5.050  0.5116 -0.5572 -0.1278
 9913SOL    HW131733   4.761   4.610   5.010 -0.1081 -0.2677  1.1086
 9913SOL    HW231734   4.841   4.562   5.129  1.2907 -0.1061  0.2541
 9914SOL     OW31735   3.846   7.175   4.935 -0.0496 -0.1140 -0.6466
 9914SOL    HW131736   3.765   7.127   4.916  0.6926 -1.1997 -1.2374
 9914SOL    HW231737   3.827   7.266   4.912 -1.0070 -0.4141 -1.0704
 9915SOL     OW31738   5.699   5.354   7.234  0.2290  0.2661  0.1483
 9915SOL    HW131739   5.745   5.280   7.193 -0.3387 -0.3070  0.5150
 9915SOL    HW231740   5.769   5.410   7.268  0.6681 -0.2187  0.0574
 9916SOL     OW31741   2.080   2.847   0.646 -0.3941  0.0752 -0.1838
 9916SOL    HW131742   2.098   2.836   0.740 -0.5725  2.4945  0.1910
 9916SOL    HW231743   1.986   2.835   0.638 -0.3148 -0.6384 -0.1727
 9917SOL     OW31744   4.522   1.200   2.669 -0.2073  0.2681  0.3213
 9917SOL    HW131745   4.577   1.160   2.736  0.6743  0.3801 -0.3223
 9917SOL    HW231746   4.566   1.180   2.587 -1.6112 -0.4421 -0.3012
 9918SOL     OW31747   6.224   7.518   0.040  0.7401 -0.3588  0.0618
 9918SOL    HW131748   6.145   7.505   0.093  0.7032 -0.8448 -0.1084
 9918SOL    HW231749   6.265   7.596   0.077  0.4668 -0.4179  0.5004
 9919SOL     OW31750   8.211   6.880   5.346  0.4691  0.2579 -0.3482
 9919SOL    HW131751   8.287   6.876   5.403 -1.0708 -1.4008  1.7363
 9919SOL    HW231752   8.217   6.801   5.292  0.4024  0.3258 -0.4573
 9920SOL     OW31753   4.579   1.471   3.445  0.1393  0.3019 -0.4322
 9920SOL    HW131754   4.655   1.469   3.387  1.0886  2.0554  0.6858
 9920SOL    HW231755   4.615   1.468   3.533 -1.1577  0.0913  0.1267
 9921SOL     OW31756   7.696   3.109   1.455  0.1176 -0.6022 -0.4274
 9921SOL    HW131757   7.788   3.083   1.446  0.2879  0.5342 -2.9035
 9921SOL    HW231758   7.697   3.204   1.454 -0.9950 -0.5322  1.3657
 9922SOL     OW31759   3.995   7.421   4.080  0.1212 -0.4653 -0.8151
 9922SOL    HW131760   4.082   7.381   4.084  0.4430  0.2174  2.6797
 9922SOL    HW231761   4.008   7.509   4.114 -1.6554  0.3971 -2.1858
 9923SOL     OW31762   0.518   0.504   2.352  0.2006  0.0450 -0.4221
 9923SOL    HW131763   0.596   0.558   2.368  0.7348 -0.9564  0.4529
 9923SOL    HW231764   0.457   0.529   2.421  0.1343  0.1058 -0.5026
 9924SOL     OW31765   6.928   2.165   0.910  0.7322 -0.8327 -0.0442
 9924SOL    HW131766   7.010   2.130   0.942  0.7107 -1.6964 -0.8910
 9924SOL    HW231767   6.944   2.259   0.899  2.1326 -1.2264 -1.7255
 9925SOL     OW31768   6.327   8.013   5.299 -0.3639  0.3707 -0.0132
 9925SOL    HW131769   6.341   8.028   5.205 -0.2826 -0.1892 -0.0890
 9925SOL    HW231770   6.327   7.918   5.309 -1.4328  0.4013  0.3891
 9926SOL     OW31771   6.319   8.429   4.305  0.1211 -0.5416 -0.1566
 9926SOL    HW131772   6.285   8.511   4.341  0.5405 -0.6912  0.5913
 9926SOL    HW231773   6.338   8.450   4.213  3.6534  1.2971  0.8437
 9927SOL     OW31774   2.537   3.687   1.575  0.3681  0.2757  0.6454
 9927SOL    HW131775   2.480   3.687   1.499  1.4769  0.0405 -0.2162
 9927SOL    HW231776   2.573   3.598   1.578 -0.2712  0.0390  1.9257
 9928SOL     OW31777   7.954   3.627   4.485 -0.0866  0.5205  0.1350
 9928SOL    HW131778   7.893   3.656   4.417  0.0486  0.6838  0.0815
 9928SOL    HW231779   7.972   3.536   4.463 -0.5714  0.3703  0.3446
 9929SOL     OW31780   5.022   5.594   7.620  0.1608  0.5213  0.4363
 9929SOL    HW131781   5.110   5.570   7.592  0.4991  3.2466 -1.1639
 9929SOL    HW231782   5.028   5.602   7.715  1.3044 -0.5030  0.4739
 9930SOL     OW31783   2.445   4.272   5.363  0.3579 -0.3203 -0.5363
 9930SOL    HW131784   2.397   4.351   5.337 -1.2549 -1.2329 -0.4651
 9930SOL    HW231785   2.468   4.230   5.281  2.9670  1.1393 -0.6632
 9931SOL     OW31786   4.038   2.374   1.456  0.3607 -0.0033  0.6343
 9931SOL    HW131787   4.111   2.435   1.443  1.0752 -0.8978  0.2989
 9931SOL    HW231788   3.979   2.392   1.383  2.3216 -2.1192 -1.6591
 9932SOL     OW31789   6.507   0.710   6.289 -0.1145  0.3000  0.2793
 9932SOL    HW131790   6.453   0.700   6.210  0.2553  1.3591 -0.1287
 9932SOL    HW231791   6.495   0.802   6.314  1.8998  0.7188 -0.1256
 9933SOL     OW31792   5.017   5.829   4.656 -0.0524  0.1586  0.1639
 9933SOL    HW131793   4.943   5.850   4.713  0.2956 -0.0294  0.6849
 9933SOL    HW231794   5.069   5.766   4.706 -0.5185 -1.1489 -0.9393
 9934SOL     OW31795   1.828   5.899   6.049 -0.3665 -0.0053  0.0056
 9934SOL    HW131796   1.794   5.816   6.015  0.4910 -0.5513  0.4461
 9934SOL    HW231797   1.852   5.949   5.971  0.5330 -0.7917 -0.2477
 9935SOL     OW31798   4.200   8.563   8.863 -0.2277  0.1029 -0.2583
 9935SOL    HW131799   4.282   8.541   8.820 -0.1731 -1.0319  0.3941
 9935SOL    HW231800   4.195   8.503   8.937 -1.7420 -0.0003 -0.4108
 9936SOL     OW31801   0.750   6.933   2.339 -0.1342 -0.0992 -0.8846
 9936SOL    HW131802   0.800   6.972   2.411  0.0317 -1.6257 -0.1271
 9936SOL    HW231803   0.692   7.003   2.310 -1.0605  0.2418  1.5295
 9937SOL     OW31804   0.028   6.820   7.683  0.1070 -0.2788  0.1280
 9937SOL    HW131805  -0.028   6.864   7.747  0.5001  0.8745 -0.2948
 9937SOL    HW231806   0.045   6.734   7.722  0.2999  0.3734  1.5724
 9938SOL     OW31807   0.712   3.266   0.697 -0.2792  0.2776  0.1792
 9938SOL    HW131808   0.623   3.246   0.728 -0.1142 -4.1093 -1.4507
 9938SOL    HW231809   0.699   3.321   0.620 -1.4569  0.8135  0.7282
 9939SOL     OW31810   2.844   6.524   6.454 -0.3587  0.3264 -0.3558
 9939SOL    HW131811   2.868   6.572   6.534  1.3611 -1.9949  0.6361
 9939SOL    HW231812   2.927   6.511   6.408 -0.9922 -0.4477 -1.3140
 9940SOL     OW31813   3.053   1.838   3.864 -0.1812  0.2025  0.4534
 9940SOL    HW131814   3.064   1.792   3.781  1.3252  0.6960  0.3463
 9940SOL    HW231815   2.978   1.795   3.905 -1.0301  0.0316 -1.1926
 9941SOL     OW31816   6.204   1.589   6.589 -0.2992  0.1635 -0.6811
 9941SOL    HW131817   6.146   1.659   6.562 -0.6675 -0.0048 -0.3397
 9941SOL    HW231818   6.221   1.539   6.509 -0.4656  0.3285 -0.8184
 9942SOL     OW31819   2.816   2.114   7.846 -0.3673 -0.3186  0.3815
 9942SOL    HW131820   2.806   2.027   7.808 -1.1073 -0.5557  1.0820
 9942SOL    HW231821   2.906   2.139   7.827 -0.6323 -0.5444 -1.2532
 9943SOL     OW31822   4.138   3.663   6.248  0.5126  0.1551  0.2519
 9943SOL    HW131823   4.131   3.715   6.328  2.5566  0.6869  0.1416
 9943SOL    HW231824   4.229   3.675   6.219  0.2993 -1.3838 -1.2277
 9944SOL     OW31825   8.341   6.267   8.426  0.2940 -0.1528  0.2024
 9944SOL    HW131826   8.383   6.347   8.459 -0.7829  0.2100  0.7594
 9944SOL    HW231827   8.247   6.287   8.430  0.0188 -1.4049  0.2027
 9945SOL     OW31828   7.554   0.103   0.081  0.4481 -0.1361  0.0741
 9945SOL    HW131829   7.533   0.078  -0.009 -1.5249  2.0266 -0.1586
 9945SOL    HW231830   7.606   0.030   0.114  0.3056 -1.5116 -2.4454
 9946SOL     OW31831   7.126   6.643   4.565  0.2550 -0.0864  0.8510
 9946SOL    HW131832   7.187   6.653   4.492 -2.4588  0.1918 -1.5708
 9946SOL    HW231833   7.104   6.732   4.591  0.1461 -0.1641  1.0299
 9947SOL     OW31834   1.815   8.400   7.077  0.4814  0.1899  0.1065
 9947SOL    HW131835   1.752   8.357   7.020  0.2518  1.3883 -0.5637
 9947SOL    HW231836   1.873   8.329   7.106 -0.7109 -0.8026  0.1577
 9948SOL     OW31837   6.587   1.354   6.077  0.1050  0.1854 -0.2795
 9948SOL    HW131838   6.661   1.293   6.086  0.4045  0.6977  1.0065
 9948SOL    HW231839   6.528   1.311   6.015  1.0270 -0.6885 -0.5886
 9949SOL     OW31840   4.599   7.098   8.140 -0.4454 -0.3836  0.0116
 9949SOL    HW131841   4.684   7.138   8.120 -0.2759 -0.7552 -0.0183
 9949SOL    HW231842   4.535   7.163   8.110 -0.2342 -1.2752 -2.6426
 9950SOL     OW31843   8.151   6.201   7.464  0.5262 -0.0538 -0.1032
 9950SOL    HW131844   8.164   6.244   7.548  0.3003 -1.3029  0.5914
 9950SOL    HW231845   8.090   6.258   7.417  0.3344  0.4469  0.7349
 9951SOL     OW31846   4.694   6.856   2.100  0.0827  0.1217 -0.5504
 9951SOL    HW131847   4.722   6.872   2.010  0.2814 -0.5507 -0.6109
 9951SOL    HW231848   4.775   6.841   2.149 -0.1061 -1.1529 -0.5948
 9952SOL     OW31849   3.995   5.206   7.237  0.0044  0.0701  0.0059
 9952SOL    HW131850   3.990   5.264   7.313  1.2905  0.5653 -0.2611
 9952SOL    HW231851   4.039   5.127   7.269  1.8368  0.8437 -0.5193
 9953SOL     OW31852   5.110   2.259   1.387  0.0656 -0.0888 -0.0790
 9953SOL    HW131853   5.168   2.186   1.365  0.9952  0.7897 -0.6686
 9953SOL    HW231854   5.073   2.286   1.303 -0.0054  0.3259  0.0831
 9954SOL     OW31855   3.130   8.482   1.248 -0.2703  0.4672  0.5808
 9954SOL    HW131856   3.072   8.407   1.236  1.2295 -1.0307  2.2627
 9954SOL    HW231857   3.154   8.508   1.159 -1.9198 -0.1051 -0.0795
 9955SOL     OW31858   6.080   3.405   1.739  0.3831 -0.2892  0.4383
 9955SOL    HW131859   6.030   3.426   1.660 -1.7938 -0.3710  1.7174
 9955SOL    HW231860   6.166   3.380   1.707 -0.4794 -0.4788 -1.9112
 9956SOL     OW31861   2.929   2.624   0.571  0.1677  0.1686  0.3579
 9956SOL    HW131862   2.920   2.704   0.622 -0.5567 -1.1539  2.4485
 9956SOL    HW231863   2.841   2.607   0.538  0.1463 -0.1598  0.5768
 9957SOL     OW31864   4.022   2.775   1.967  0.0028 -0.0072 -0.0247
 9957SOL    HW131865   4.016   2.714   1.894  0.0689  1.2750 -1.1465
 9957SOL    HW231866   3.938   2.766   2.013 -0.7831  0.4703 -1.3365
 9958SOL     OW31867   8.569   4.448   2.740  0.5332 -0.1895 -0.2075
 9958SOL    HW131868   8.654   4.450   2.696  0.4293  0.4173 -0.3901
 9958SOL    HW231869   8.571   4.524   2.798 -0.0834  0.1163 -0.5828
 9959SOL     OW31870   5.430   5.947   3.470 -0.4078 -0.0962 -0.3450
 9959SOL    HW131871   5.475   6.007   3.410 -0.2669 -0.7863 -0.9502
 9959SOL    HW231872   5.500   5.914   3.527 -0.6306  0.9720  0.5731
 9960SOL     OW31873   4.098   6.592   2.580 -0.1900 -0.5212 -0.1751
 9960SOL    HW131874   4.047   6.515   2.555  3.3183 -3.0365 -0.3729
 9960SOL    HW231875   4.095   6.649   2.502 -2.7710 -0.3733 -0.0543
 9961SOL     OW31876   5.874   5.526   7.322  0.2739  0.1248  0.1783
 9961SOL    HW131877   5.857   5.611   7.281  2.4146  0.0994 -0.8596
 9961SOL    HW231878   5.900   5.549   7.412  0.8842  0.5726 -0.1070
 9962SOL     OW31879   4.813   4.849   5.236  0.7530 -0.2915  0.3178
 9962SOL    HW131880   4.861   4.806   5.306 -0.6054 -2.2469  0.1366
 9962SOL    HW231881   4.813   4.786   5.164 -0.0823  0.5933 -0.4996
 9963SOL     OW31882   4.172   5.062   6.019 -0.5012 -0.0635 -0.4629
 9963SOL    HW131883   4.209   5.150   6.030  1.2915 -0.6348 -1.4041
 9963SOL    HW231884   4.112   5.052   6.092  0.8692  1.1487  0.9146
 9964SOL     OW31885   8.164   6.875   6.036  0.1726  0.6879  0.4892
 9964SOL    HW131886   8.182   6.847   6.126 -1.9964  0.1641  0.8150
 9964SOL    HW231887   8.162   6.794   5.986 -0.9376  0.7400  0.4320
 9965SOL     OW31888   7.957   1.112   8.862  0.0924 -0.6025  0.0456
 9965SOL    HW131889   7.894   1.042   8.845 -0.3849 -0.4038  0.8994
 9965SOL    HW231890   7.906   1.192   8.851 -0.0145 -0.4537  1.4604
 9966SOL     OW31891   7.617   0.745   4.706 -0.0299  0.2510  0.3592
 9966SOL    HW131892   7.578   0.831   4.699 -0.0388  0.2189 -0.0150
 9966SOL    HW231893   7.644   0.723   4.616  2.0347  0.8306  0.7883
 9967SOL     OW31894   5.828   8.399   0.367 -0.0545  0.2005 -0.2084
 9967SOL    HW131895   5.877   8.351   0.301  0.6689 -0.6043  0.8721
 9967SOL    HW231896   5.747   8.349   0.379 -0.2714  0.4520 -0.6068
 9968SOL     OW31897   1.731   8.584   3.631  0.0776 -0.2730 -0.2542
 9968SOL    HW131898   1.710   8.587   3.538  0.0300 -0.0179 -0.2371
 9968SOL    HW231899   1.677   8.653   3.670  1.6583  1.0944 -0.3561
 9969SOL     OW31900   6.193   1.584   4.357  0.2517  0.3228  0.3026
 9969SOL    HW131901   6.208   1.672   4.392  0.8048  0.3951 -0.0902
 9969SOL    HW231902   6.264   1.572   4.293  2.2524 -1.6989  2.6950
 9970SOL     OW31903   8.666   0.970   2.282 -0.4305 -0.8046 -0.2208
 9970SOL    HW131904   8.624   1.055   2.275 -1.1083 -1.0752  0.3995
 9970SOL    HW231905   8.598   0.908   2.254  0.1037 -1.1346 -0.8116
 9971SOL     OW31906   4.217   1.004   0.693 -0.3514 -0.2695 -0.3600
 9971SOL    HW131907   4.198   0.910   0.687 -0.7903 -0.4175  2.2043
 9971SOL    HW231908   4.303   1.009   0.735  0.5681  0.5118 -2.2230
 9972SOL     OW31909   4.954   1.420   6.269 -0.1657  0.6918 -0.8270
 9972SOL    HW131910   4.975   1.464   6.352 -2.2629  0.1533  0.0704
 9972SOL    HW231911   4.914   1.488   6.215  0.4457  0.8529 -1.0784
 9973SOL     OW31912   7.807   4.588   3.134  0.0814  0.1434  0.1084
 9973SOL    HW131913   7.890   4.579   3.179 -0.9458 -0.0480  2.0495
 9973SOL    HW231914   7.788   4.500   3.100  0.6911  0.2090 -0.4133
 9974SOL     OW31915   3.822   8.153   1.642  0.3945 -0.1626  0.1478
 9974SOL    HW131916   3.823   8.245   1.615 -0.3612  0.2596  1.4712
 9974SOL    HW231917   3.913   8.125   1.636  0.8483  1.0548  0.9591
 9975SOL     OW31918   1.092   3.604   3.082 -0.5357 -0.1870  0.3277
 9975SOL    HW131919   1.094   3.516   3.044 -0.2990  0.1369 -0.4221
 9975SOL    HW231920   1.166   3.606   3.143 -0.1504 -0.2987 -0.1306
 9976SOL     OW31921   8.689   2.550   7.453 -0.4138  0.1641 -0.2896
 9976SOL    HW131922   8.729   2.571   7.369  0.2758 -0.6316 -0.1677
 9976SOL    HW231923   8.613   2.609   7.459  0.5688  1.5098 -0.6385
 9977SOL     OW31924   3.160   5.797   0.670  0.2982 -0.5233  0.3171
 9977SOL    HW131925   3.095   5.858   0.706 -0.5399  0.3510 -2.4258
 9977SOL    HW231926   3.243   5.826   0.708 -0.1716  1.9604 -0.3424
 9978SOL     OW31927   3.114   1.564   1.895 -0.0521 -0.1454  0.3053
 9978SOL    HW131928   3.045   1.521   1.946  0.1181  0.1101  0.7603
 9978SOL    HW231929   3.081   1.652   1.878 -0.0207 -0.1625  0.1515
 9979SOL     OW31930   4.259   1.739   1.559 -0.2307 -0.4846 -0.3624
 9979SOL    HW131931   4.300   1.811   1.511 -1.3991  0.7503  0.4071
 9979SOL    HW231932   4.327   1.672   1.565  1.6120  1.3465  0.5980
 9980SOL     OW31933   3.555   6.267   0.999  0.2349 -0.1455 -0.9423
 9980SOL    HW131934   3.611   6.325   0.947  2.0122  0.3963  1.3824
 9980SOL    HW231935   3.536   6.317   1.079 -1.6307 -1.2474 -0.6366
 9981SOL     OW31936   0.277   2.293   3.345 -0.2311  0.2521  0.5793
 9981SOL    HW131937   0.373   2.301   3.344 -0.0624 -1.4547 -0.4625
 9981SOL    HW231938   0.254   2.301   3.437  1.0294 -0.4384  0.9799
 9982SOL     OW31939   6.210   3.623   6.442  0.4157 -0.4287  0.6250
 9982SOL    HW131940   6.281   3.569   6.407 -0.1296 -1.2274  0.7303
 9982SOL    HW231941   6.135   3.564   6.446 -0.1377  0.2855  0.9476
 9983SOL     OW31942   8.732   3.736   7.350 -0.1542 -0.4569  0.3254
 9983SOL    HW131943   8.751   3.652   7.393 -1.1876 -0.8589  0.0245
 9983SOL    HW231944   8.787   3.799   7.396  2.3599 -1.6269 -0.8551
 9984SOL     OW31945   2.180   5.630   4.806 -0.4865 -0.8254  0.1934
 9984SOL    HW131946   2.207   5.712   4.845 -1.2762  0.2138 -1.3184
 9984SOL    HW231947   2.226   5.562   4.856  1.7591  0.6175  0.2206
 9985SOL     OW31948   1.077   7.055   2.772 -0.4315  0.0149  0.1923
 9985SOL    HW131949   1.103   7.121   2.837 -1.2620 -1.5640  2.2465
 9985SOL    HW231950   1.159   7.025   2.734  0.1493  0.4115  1.1062
 9986SOL     OW31951   4.837   3.307   5.651 -0.6848  0.1538  0.4877
 9986SOL    HW131952   4.748   3.316   5.617 -0.4481  0.3263 -0.0924
 9986SOL    HW231953   4.867   3.222   5.620 -0.8625 -0.1750  1.1966
 9987SOL     OW31954   4.047   2.188   4.806  0.2346 -0.7114 -0.0430
 9987SOL    HW131955   3.983   2.241   4.758 -1.0178 -1.1408  1.0785
 9987SOL    HW231956   4.061   2.112   4.749  3.2532  1.3841 -2.4257
 9988SOL     OW31957   2.941   0.581   6.014 -0.3437  0.2170  0.0626
 9988SOL    HW131958   3.025   0.614   5.983 -0.1789  1.5484  1.8034
 9988SOL    HW231959   2.961   0.535   6.096 -1.0482 -1.3486 -0.5867
 9989SOL     OW31960   8.631   5.166   2.709 -0.2970  0.2310  0.5752
 9989SOL    HW131961   8.671   5.187   2.793  0.9387 -0.9726  0.3343
 9989SOL    HW231962   8.619   5.071   2.711  0.7291  0.0255 -0.9897
 9990SOL     OW31963   2.265   2.208   7.949 -0.0485 -0.2958 -0.1379
 9990SOL    HW131964   2.228   2.201   7.861 -0.9810 -0.8948  0.2859
 9990SOL    HW231965   2.218   2.282   7.988  0.1711 -0.2050 -0.0424
 9991SOL     OW31966   6.623   2.750   5.400  0.3959 -0.3672  0.1907
 9991SOL    HW131967   6.554   2.802   5.442  0.5643 -0.9750  1.2649
 9991SOL    HW231968   6.705   2.789   5.429  0.5393 -1.5887  1.5574
 9992SOL     OW31969   4.058   0.087   2.234  0.0784  0.7538 -0.1870
 9992SOL    HW131970   4.061   0.131   2.149  1.0292  0.2498 -0.4338
 9992SOL    HW231971   4.147   0.054   2.247 -0.7139 -1.6497 -0.3170
 9993SOL     OW31972   3.717   7.911   1.526  0.0335  0.3139  0.2375
 9993SOL    HW131973   3.771   7.983   1.560  0.0368 -0.1026  1.1462
 9993SOL    HW231974   3.754   7.894   1.439  0.2980  1.1304  0.1722
 9994SOL     OW31975   1.027   3.454   8.860  0.1002 -0.1312  0.5227
 9994SOL    HW131976   1.029   3.488   8.950  0.6751 -0.7102  0.7330
 9994SOL    HW231977   0.935   3.433   8.844  0.1497 -1.0258  1.3589
 9995SOL     OW31978   0.458   0.053   3.018 -0.3549  0.1526  0.5725
 9995SOL    HW131979   0.365   0.074   3.016 -0.1666  1.1409  1.2369
 9995SOL    HW231980   0.461  -0.042   3.021 -1.3697  0.1273  1.2872
 9996SOL     OW31981   2.622   5.368   0.099 -0.1046  0.4408  0.2125
 9996SOL    HW131982   2.621   5.464   0.106  0.2697  0.3900  1.0245
 9996SOL    HW231983   2.703   5.349   0.052  0.7115  0.4417  1.5754
 9997SOL     OW31984   5.152   2.936   6.037  0.2501  0.7352  0.3008
 9997SOL    HW131985   5.197   2.956   5.955 -1.6885  1.9055 -0.5601
 9997SOL    HW231986   5.154   3.018   6.086 -0.0080  0.5008  0.7089
 9998SOL     OW31987   3.070   4.909   2.900  0.6009  0.3461 -0.4924
 9998SOL    HW131988   3.019   4.939   2.824 -2.3130 -2.8349 -0.0480
 9998SOL    HW231989   3.085   4.816   2.883  3.2230  0.3717  1.1684
 9999SOL     OW31990   7.668   3.153   4.386  0.1897  0.0235 -0.1208
 9999SOL    HW131991   7.669   3.247   4.405 -0.8755 -0.0018  0.1025
 9999SOL    HW231992   7.684   3.148   4.292 -0.5060  0.4721 -0.2662
10000SOL     OW31993   5.484   1.056   3.159 -0.7190  0.4734  0.1826
10000SOL    HW131994   5.538   0.977   3.148 -0.9418  0.3039  0.2937
10000SOL    HW231995   5.502   1.108   3.081 -1.3550 -0.1654 -0.4134
10001SOL     OW31996   2.333   7.850   4.467 -0.1385 -0.1085 -0.4483
10001SOL    HW131997   2.428   7.851   4.454 -0.1793 -0.6491 -0.8235
10001SOL    HW231998   2.297   7.890   4.388 -0.2335 -0.0353 -0.3696
10002SOL     OW31999   1.881   4.755   8.244  0.2499  0.0637  0.3030
10002SOL    HW132000   1.922   4.703   8.313  0.0234 -0.2608  0.1967
10002SOL    HW232001   1.938   4.831   8.234  2.8651 -2.0025 -2.2440
10003SOL     OW32002   3.097   6.015   4.992 -0.4041 -0.2777 -0.6126
10003SOL    HW132003   3.045   6.045   5.067 -0.3584 -0.8329 -0.3571
10003SOL    HW232004   3.069   5.925   4.978 -0.5464 -0.1133 -1.3865
10004SOL     OW32005   7.274   8.237   3.369  0.3601  0.2933  0.5468
10004SOL    HW132006   7.303   8.213   3.280  1.8939  0.8061  0.8782
10004SOL    HW232007   7.260   8.153   3.413 -1.0866  0.0257 -0.3631
10005SOL     OW32008   6.263   6.772   7.024  0.0142  0.4856  0.1814
10005SOL    HW132009   6.215   6.802   7.101  1.9628  0.8007  1.3468
10005SOL    HW232010   6.291   6.852   6.979  2.2498  0.4843  1.3954
10006SOL     OW32011   6.850   1.002   4.920 -0.2355  0.4628  0.1475
10006SOL    HW132012   6.838   1.061   4.994 -1.8438  0.6642 -0.2482
10006SOL    HW232013   6.881   0.920   4.960 -1.7248  0.3471  1.1542
10007SOL     OW32014   8.520   4.267   5.827 -0.2947  0.5049 -1.0835
10007SOL    HW132015   8.509   4.174   5.808  3.5410 -0.5686  0.9618
10007SOL    HW232016   8.471   4.281   5.908  0.4653 -0.1683 -0.5016
10008SOL     OW32017   0.504   2.723   0.742  0.3783  0.2674  0.1075
10008SOL    HW132018   0.509   2.819   0.741 -1.7698  0.4366 -1.3465
10008SOL    HW232019   0.484   2.701   0.833  1.8480  1.0945  0.6632
10009SOL     OW32020   8.034   5.504   6.283 -0.0033 -0.3005  0.1640
10009SOL    HW132021   7.977   5.430   6.264 -0.2402  0.6428 -3.6731
10009SOL    HW232022   8.015   5.568   6.214  0.5088  3.2258  2.9550
10010SOL     OW32023   7.960   2.784   4.343 -0.2962 -0.1402 -0.5711
10010SOL    HW132024   7.965   2.840   4.420 -0.1594  2.9185 -2.5923
10010SOL    HW232025   7.902   2.831   4.283  0.1231 -2.0184 -2.6021
10011SOL     OW32026   2.852   5.625   4.921  0.5642 -0.0547 -0.3052
10011SOL    HW132027   2.828   5.551   4.976  0.2890 -0.8703 -1.4847
10011SOL    HW232028   2.888   5.690   4.982  1.4100 -1.3964  0.6844
10012SOL     OW32029   3.976   3.102   7.780  0.0017  0.4878  0.1369
10012SOL    HW132030   3.986   3.009   7.800  0.5380  0.5284  0.0848
10012SOL    HW232031   3.883   3.113   7.759 -0.0298 -0.0656 -0.0204
10013SOL     OW32032   8.548   5.496   4.438 -0.4190 -0.0475  0.0476
10013SOL    HW132033   8.567   5.411   4.478 -0.7111 -0.2978 -0.3393
10013SOL    HW232034   8.597   5.559   4.491  0.6845 -0.5700 -0.3264
10014SOL     OW32035   5.088   8.106   7.668  0.0295 -0.3061 -0.1674
10014SOL    HW132036   5.082   8.125   7.762 -0.2262  1.1676 -0.4575
10014SOL    HW232037   5.071   8.012   7.662  3.1328 -1.1292  1.5534
10015SOL     OW32038   3.385   5.559   5.505 -0.0242  0.2280  0.4284
10015SOL    HW132039   3.375   5.649   5.537 -0.6722  0.0938  0.6218
10015SOL    HW232040   3.313   5.511   5.546 -0.1438 -0.2123 -0.2763
10016SOL     OW32041   3.154   3.927   8.540 -0.4136 -0.0351  0.6241
10016SOL    HW132042   3.061   3.935   8.520 -0.2293 -0.4275 -0.4841
10016SOL    HW232043   3.185   3.857   8.482  0.9261  1.2747 -0.2964
10017SOL     OW32044   3.416   5.246   2.240 -0.4208  0.1014 -0.8550
10017SOL    HW132045   3.503   5.216   2.266 -1.2028 -1.4867  0.0693
10017SOL    HW232046   3.426   5.340   2.227  0.9841  0.2880  1.1946
10018SOL     OW32047   0.308   2.736   4.240 -0.1669 -0.4780  0.6664
10018SOL    HW132048   0.217   2.766   4.234 -0.4357 -1.3115  0.3864
10018SOL    HW232049   0.315   2.696   4.327  0.0750  0.0270  0.8822
10019SOL     OW32050   5.636   8.136   2.061 -0.1738 -0.0278  0.0940
10019SOL    HW132051   5.544   8.159   2.074  0.0517  0.2803  1.1851
10019SOL    HW232052   5.685   8.215   2.084  0.3994 -0.3669  0.0671
10020SOL     OW32053   5.460   6.090   4.926  0.4675  0.1514 -0.2261
10020SOL    HW132054   5.480   6.158   4.990 -0.0359 -0.7775  0.9508
10020SOL    HW232055   5.520   6.019   4.947  2.4889  0.9586 -2.8005
10021SOL     OW32056   2.356   5.815   5.489  0.1919 -0.3227 -0.1700
10021SOL    HW132057   2.390   5.874   5.557 -0.3301 -1.0066  0.7135
10021SOL    HW232058   2.407   5.734   5.500  0.4677 -0.2645 -0.9497
10022SOL     OW32059   0.503   5.021   1.896  0.1194  0.1973 -0.7429
10022SOL    HW132060   0.572   5.008   1.831 -0.1502 -0.9015 -0.8384
10022SOL    HW232061   0.428   5.051   1.845  0.3606  0.8567 -0.7148
10023SOL     OW32062   5.021   4.951   5.916 -0.4336  0.6449  0.5439
10023SOL    HW132063   4.955   5.021   5.922 -0.0001  1.1134 -0.0874
10023SOL    HW232064   5.103   4.996   5.901 -0.1149  0.0068  0.3260
10024SOL     OW32065   2.248   5.020   7.819 -0.5668  0.3524 -0.2306
10024SOL    HW132066   2.165   4.973   7.818 -0.3795  0.0221 -1.4246
10024SOL    HW232067   2.302   4.970   7.881 -1.7412  1.5211  1.8582
10025SOL     OW32068   0.717   7.797   6.091  0.8073 -0.2127  0.1875
10025SOL    HW132069   0.807   7.799   6.060  0.9033  0.7564  0.4935
10025SOL    HW232070   0.694   7.704   6.094  1.3965 -0.4163 -1.0271
10026SOL     OW32071   8.582   7.921   2.362  0.3226 -0.0698 -0.0047
10026SOL    HW132072   8.667   7.955   2.334  0.0983  0.7824  0.3143
10026SOL    HW232073   8.603   7.845   2.415  0.8040 -1.0076 -1.4839
10027SOL     OW32074   8.153   5.799   8.691 -0.2041  0.5174  0.0458
10027SOL    HW132075   8.111   5.853   8.624  0.7509  0.7325 -0.3958
10027SOL    HW232076   8.088   5.732   8.713 -0.3582  0.1568 -1.4367
10028SOL     OW32077   1.127   1.049   5.837  0.1759  0.4650  0.0348
10028SOL    HW132078   1.130   0.953   5.842 -2.5888  0.2561 -0.7390
10028SOL    HW232079   1.070   1.068   5.763 -0.0348  2.7250  0.6997
10029SOL     OW32080   3.808   4.682   2.233  0.1913 -0.5042  0.0063
10029SOL    HW132081   3.882   4.652   2.286 -0.5394 -0.3745  1.1244
10029SOL    HW232082   3.741   4.615   2.245  0.5630 -1.3439 -2.0983
10030SOL     OW32083   2.426   3.619   3.125  0.2952 -0.2117 -0.2315
10030SOL    HW132084   2.494   3.644   3.186 -0.1333  2.3604 -0.6877
10030SOL    HW232085   2.362   3.570   3.177  0.2546  1.3600  1.2672
10031SOL     OW32086   1.975   2.538   0.386  0.5495  0.1710  0.3674
10031SOL    HW132087   2.019   2.560   0.304 -0.2988  0.4251 -0.0206
10031SOL    HW232088   2.037   2.481   0.431  0.0468 -1.9880 -1.5193
10032SOL     OW32089   8.675   3.345   7.893  0.0088  0.1059 -0.3983
10032SOL    HW132090   8.679   3.282   7.821 -0.2800 -1.5878  1.0105
10032SOL    HW232091   8.762   3.341   7.933 -0.5477 -0.7765  0.7871
10033SOL     OW32092   1.195   1.578   5.318 -0.1655  0.4439 -0.0623
10033SOL    HW132093   1.251   1.548   5.389 -1.8771  0.5876  1.4207
10033SOL    HW232094   1.131   1.508   5.306 -0.5300  0.8780 -0.7377
10034SOL     OW32095   4.705   1.072   6.868 -0.2181 -0.4200 -0.9360
10034SOL    HW132096   4.704   1.138   6.799 -3.8333  2.1137  1.1438
10034SOL    HW232097   4.636   1.010   6.843 -1.6888  0.6254  0.3248
10035SOL     OW32098   0.604   2.441   3.125  0.1433 -0.4956 -0.1931
10035SOL    HW132099   0.510   2.460   3.124  0.1983 -0.1641  0.4751
10035SOL    HW232100   0.643   2.510   3.071 -0.0268 -0.8359 -0.7608
10036SOL     OW32101   3.770   8.287   2.334 -0.1493 -0.1388 -0.5451
10036SOL    HW132102   3.718   8.358   2.298 -1.0823 -0.4426  0.1915
10036SOL    HW232103   3.847   8.329   2.371 -1.5201  0.7203  1.4865
10037SOL     OW32104   3.815   0.544   4.722 -0.1106 -0.7032  0.5633
10037SOL    HW132105   3.739   0.517   4.672  0.2628 -1.3257  0.3228
10037SOL    HW232106   3.887   0.547   4.658 -0.2652  1.6554  0.3865
10038SOL     OW32107   7.976   2.644   2.956 -0.1563  0.4807 -0.4266
10038SOL    HW132108   7.949   2.683   2.872  1.2787  0.4503 -0.9181
10038SOL    HW232109   8.002   2.555   2.934  0.6326  0.6076 -0.0199
10039SOL     OW32110   7.701   3.796   4.894 -0.1850 -0.2797  0.4338
10039SOL    HW132111   7.606   3.801   4.901 -0.3412 -0.0969 -1.3765
10039SOL    HW232112   7.725   3.721   4.947 -1.4364 -0.8323  0.2540
10040SOL     OW32113   1.762   2.464   2.295  0.2976 -0.3643  1.0255
10040SOL    HW132114   1.839   2.417   2.264 -0.5327 -0.4520 -1.1082
10040SOL    HW232115   1.701   2.395   2.322  0.2889 -0.3666  0.9995
10041SOL     OW32116   4.667   4.545   2.425  0.3977  0.1547 -0.3849
10041SOL    HW132117   4.602   4.528   2.357 -0.7015 -0.2926  0.7282
10041SOL    HW232118   4.643   4.631   2.460  0.4294  0.0193 -0.0208
10042SOL     OW32119   8.231   6.607   0.919  0.6008 -0.3317 -0.0255
10042SOL    HW132120   8.150   6.600   0.869 -1.1408 -0.2578  2.5405
10042SOL    HW232121   8.266   6.693   0.895  0.0833 -0.4712 -1.3853
10043SOL     OW32122   6.785   8.453   0.074  0.2093 -0.2208 -0.1768
10043SOL    HW132123   6.761   8.468  -0.017  2.9782 -2.4789 -1.4362
10043SOL    HW232124   6.745   8.370   0.096 -4.1568  2.2086  2.3537
10044SOL     OW32125   4.678   1.287   2.432 -0.4100  0.3789 -0.4622
10044SOL    HW132126   4.636   1.373   2.423 -1.1491  0.1600  0.7000
10044SOL    HW232127   4.737   1.297   2.507  0.2906  0.1564 -0.9652
10045SOL     OW32128   8.608   8.373   6.624 -0.1121  0.5291  0.3297
10045SOL    HW132129   8.519   8.405   6.607 -1.3269 -1.6372  2.0451
10045SOL    HW232130   8.611   8.360   6.719 -0.0659 -4.8451 -0.1422
10046SOL     OW32131   8.595   5.233   6.787 -0.1755  0.2190  0.0335
10046SOL    HW132132   8.519   5.206   6.839  0.0124  1.2431  0.8665
10046SOL    HW232133   8.595   5.328   6.793  1.1606  0.2303  0.0203
10047SOL     OW32134   0.091   4.677   0.555 -0.4005 -0.0681  0.0745
10047SOL    HW132135  -0.003   4.678   0.540 -0.4651 -1.0821  0.3290
10047SOL    HW232136   0.125   4.752   0.507 -1.4202  0.6949  0.5258
10048SOL     OW32137   0.878   1.291   8.622 -0.0418  0.4218  0.1665
10048SOL    HW132138   0.808   1.354   8.634 -1.2530 -1.1315  1.9277
10048SOL    HW232139   0.958   1.339   8.643 -0.8337  1.5850  0.6022
10049SOL     OW32140   4.777   0.575   5.068  0.0794  0.1532  0.4045
10049SOL    HW132141   4.761   0.659   5.110  0.7945 -0.9228  3.0030
10049SOL    HW232142   4.759   0.510   5.136  0.5361 -1.7703 -1.2051
10050SOL     OW32143   8.493   4.625   8.514  0.6024  0.3204 -0.4161
10050SOL    HW132144   8.487   4.529   8.520  1.7210  0.3310  1.6356
10050SOL    HW232145   8.530   4.640   8.426  1.6529 -1.2184 -0.2883
10051SOL     OW32146   7.226   8.533   6.015  0.2195  0.0092  0.2538
10051SOL    HW132147   7.288   8.569   6.078  0.9164 -1.6937  0.6098
10051SOL    HW232148   7.242   8.583   5.935  0.8922  0.7134  0.8135
10052SOL     OW32149   4.062   6.861   1.606 -0.2004  0.0202 -0.0935
10052SOL    HW132150   3.988   6.876   1.547  0.8196  1.3345 -1.1180
10052SOL    HW232151   4.075   6.946   1.649  1.1582  0.0399 -0.5044
10053SOL     OW32152   5.560   6.218   0.954 -0.0712  0.5352 -0.4806
10053SOL    HW132153   5.617   6.185   0.885 -0.2627 -1.7128  0.3430
10053SOL    HW232154   5.489   6.262   0.907 -0.8721 -2.0251 -1.8725
10054SOL     OW32155   0.437   3.492   7.078 -0.5393  0.5350 -0.5765
10054SOL    HW132156   0.443   3.518   7.170 -0.7461 -0.4745 -0.2644
10054SOL    HW232157   0.526   3.463   7.055 -1.2836 -3.2917  0.6138
10055SOL     OW32158   8.376   6.411   2.273 -0.4024 -0.3265  0.2204
10055SOL    HW132159   8.341   6.441   2.357  0.6042 -0.5481  0.7351
10055SOL    HW232160   8.304   6.362   2.234 -1.4831  1.2641  0.1413
10056SOL     OW32161   1.139   6.246   4.070  0.2841 -0.0843  0.1041
10056SOL    HW132162   1.167   6.205   4.152  0.4619 -1.1224 -0.4579
10056SOL    HW232163   1.187   6.198   4.002  0.7178  1.2468 -0.5701
10057SOL     OW32164   5.620   2.829   7.430 -0.3345  0.5557 -0.7626
10057SOL    HW132165   5.645   2.891   7.498  1.2437 -0.3213 -0.4884
10057SOL    HW232166   5.648   2.870   7.348  1.5860 -0.1521 -0.5056
10058SOL     OW32167   2.739   3.767   5.903  0.4151 -0.0603  0.2273
10058SOL    HW132168   2.828   3.784   5.873  0.9527 -1.0267  1.1671
10058SOL    HW232169   2.750   3.702   5.973 -0.7533  1.9204  2.4012
10059SOL     OW32170   0.386   2.133   7.245  0.0921 -0.1048 -0.0900
10059SOL    HW132171   0.312   2.162   7.299  0.9025  0.3801  0.7815
10059SOL    HW232172   0.411   2.049   7.282 -0.2877 -0.4847 -0.6684
10060SOL     OW32173   7.982   3.773   8.682 -0.0142 -0.3254  0.0797
10060SOL    HW132174   7.902   3.726   8.703 -0.6740  0.5213 -0.4430
10060SOL    HW232175   7.986   3.843   8.747 -2.3710  2.6673 -2.6225
10061SOL     OW32176   3.564   7.191   6.868 -0.1613 -0.7995 -1.1166
10061SOL    HW132177   3.552   7.096   6.876  0.8032 -0.9710 -1.5996
10061SOL    HW232178   3.615   7.202   6.788 -1.5227  0.2342 -1.8885
10062SOL     OW32179   0.081   5.452   0.285  0.2685 -0.2951  0.4888
10062SOL    HW132180   0.069   5.407   0.202  0.1139 -0.7949  0.7790
10062SOL    HW232181   0.159   5.506   0.272 -0.2354  0.2770 -0.2513
10063SOL     OW32182   8.264   7.864   0.358  0.1398 -0.3877 -0.0293
10063SOL    HW132183   8.193   7.928   0.349  0.9455  0.5047 -0.2225
10063SOL    HW232184   8.298   7.855   0.269  1.2500  0.3624  0.3021
10064SOL     OW32185   8.334   5.274   2.858 -0.7861  0.2106 -1.0512
10064SOL    HW132186   8.408   5.325   2.824 -0.8048  0.8580 -0.1663
10064SOL    HW232187   8.257   5.325   2.836 -1.0305 -0.6235 -2.2627
10065SOL     OW32188   4.509   3.226   7.885 -0.0434  0.7807 -0.1308
10065SOL    HW132189   4.479   3.178   7.808 -0.2622 -0.0797  0.4769
10065SOL    HW232190   4.444   3.206   7.952 -0.3054  2.1761  0.0665
10066SOL     OW32191   3.274   7.849   4.438  0.0700 -0.3114  0.3107
10066SOL    HW132192   3.293   7.913   4.508  0.0038  1.9828 -1.6470
10066SOL    HW232193   3.215   7.786   4.479 -0.4610  1.2960  2.1786
10067SOL     OW32194   7.915   8.262   0.513 -0.5471  0.0925  0.0645
10067SOL    HW132195   7.850   8.331   0.496 -1.8959 -0.7683  1.5479
10067SOL    HW232196   7.997   8.310   0.524 -1.1044  1.3031 -0.7413
10068SOL     OW32197   6.445   6.587   3.905  0.0593 -0.1675  0.5626
10068SOL    HW132198   6.519   6.536   3.872 -1.1334 -1.5555 -0.0819
10068SOL    HW232199   6.451   6.670   3.859  1.6843  0.0713  1.1462
10069SOL     OW32200   7.291   5.316   1.992  0.1606  0.2931  0.3233
10069SOL    HW132201   7.280   5.341   2.084 -0.3692  0.0650  0.3285
10069SOL    HW232202   7.282   5.398   1.944  0.7016  0.4549  0.4888
10070SOL     OW32203   2.274   7.690   8.859  0.3174  0.4713 -0.4841
10070SOL    HW132204   2.189   7.732   8.860  0.1956  0.2373  0.5062
10070SOL    HW232205   2.331   7.750   8.908  0.9382  1.0346 -1.8646
10071SOL     OW32206   6.572   2.284   6.813 -0.3540 -0.0571 -0.3938
10071SOL    HW132207   6.581   2.211   6.752  0.3306 -0.6742  0.4359
10071SOL    HW232208   6.661   2.305   6.840 -0.7504 -1.5471  2.4326
10072SOL     OW32209   0.630   1.388   3.927 -0.4075 -0.4529  0.1186
10072SOL    HW132210   0.536   1.393   3.909 -0.1127 -1.6257 -2.0578
10072SOL    HW232211   0.636   1.382   4.022 -2.5300 -0.5041  0.2885
10073SOL     OW32212   2.031   7.729   3.842  0.2917 -0.5902  0.2157
10073SOL    HW132213   2.012   7.681   3.922 -0.9585 -0.0485  0.2675
10073SOL    HW232214   2.123   7.755   3.851  0.2338 -0.7280  1.3666
10074SOL     OW32215   5.112   1.011   2.858  0.0294  0.1783  0.3284
10074SOL    HW132216   5.129   0.985   2.948  0.4474  4.6394  1.7996
10074SOL    HW232217   5.022   1.043   2.859  0.3108  1.0552 -0.6170
10075SOL     OW32218   6.914   0.447   4.940 -0.8837 -0.0106  0.6038
10075SOL    HW132219   6.842   0.414   4.885 -1.3995  0.7181  0.8281
10075SOL    HW232220   6.973   0.372   4.949 -0.7383 -0.1227 -1.0074
10076SOL     OW32221   7.334   8.108   3.104  0.2665 -0.2734 -0.0984
10076SOL    HW132222   7.372   8.020   3.098  1.4704  0.2925 -1.3107
10076SOL    HW232223   7.260   8.106   3.043  0.9191 -0.1712 -0.9164
10077SOL     OW32224   2.872   0.271   0.607 -0.3207  0.2359 -0.1609
10077SOL    HW132225   2.952   0.286   0.557  0.0469 -0.4876  0.1990
10077SOL    HW232226   2.803   0.262   0.541  0.0448 -0.0132 -0.5078
10078SOL     OW32227   7.721   5.455   8.762 -0.2287  0.4844 -0.4181
10078SOL    HW132228   7.791   5.399   8.728 -1.0854  0.2569 -1.8659
10078SOL    HW232229   7.724   5.442   8.857  0.8331 -0.5277 -0.5752
10079SOL     OW32230   5.298   1.638   8.172  0.3190  0.4845 -0.3704
10079SOL    HW132231   5.351   1.718   8.175  1.3959 -0.2320  1.6431
10079SOL    HW232232   5.361   1.567   8.180 -0.8053 -0.4829  0.1895
10080SOL     OW32233   4.391   2.398   7.123 -0.0570  0.6457  0.1715
10080SOL    HW132234   4.310   2.359   7.090 -0.4773  0.9780  0.7936
10080SOL    HW232235   4.374   2.492   7.122 -0.3186  0.6432  1.8966
10081SOL     OW32236   4.546   2.447   7.497  0.0273  1.1477  0.1514
10081SOL    HW132237   4.535   2.383   7.427  1.9803  2.0851 -1.1022
10081SOL    HW232238   4.598   2.401   7.563 -2.1011  0.1520  1.2391
10082SOL     OW32239   7.982   6.363   7.285 -0.0817 -0.5455 -0.7210
10082SOL    HW132240   8.038   6.408   7.222 -0.7370  0.4837 -0.5877
10082SOL    HW232241   7.926   6.306   7.232  0.2778 -0.6888 -0.9493
10083SOL     OW32242   6.468   3.042   1.392  0.4384  0.0631  0.2197
10083SOL    HW132243   6.493   3.008   1.478 -0.4972  1.5146  1.0972
10083SOL    HW232244   6.387   2.995   1.371  0.5103 -0.0824  0.2652
10084SOL     OW32245   6.815   6.268   5.912  0.0281 -0.5363 -0.8408
10084SOL    HW132246   6.826   6.338   5.848  0.4216 -0.5162 -0.7571
10084SOL    HW232247   6.733   6.226   5.888 -1.1961  1.1115  0.2252
10085SOL     OW32248   5.324   2.347   4.805 -0.2253 -0.1972 -0.0398
10085SOL    HW132249   5.238   2.307   4.814 -1.1440  0.5890 -3.7692
10085SOL    HW232250   5.322   2.421   4.865 -1.9265 -0.5519  0.4029
10086SOL     OW32251   7.924   3.771   2.308 -0.2453  0.2127  0.4942
10086SOL    HW132252   8.012   3.762   2.271  0.7194  1.0151  2.4249
10086SOL    HW232253   7.919   3.701   2.374 -1.3427 -0.2729 -0.0851
10087SOL     OW32254   7.321   0.237   2.992  0.1788  0.0946  0.1164
10087SOL    HW132255   7.371   0.171   3.041 -0.2399 -0.5175 -0.2649
10087SOL    HW232256   7.351   0.320   3.027  0.3871 -0.3133  0.9354
10088SOL     OW32257   3.197   5.600   5.170  0.1594 -0.5075 -0.1108
10088SOL    HW132258   3.225   5.658   5.241  1.4451  2.0116 -2.4636
10088SOL    HW232259   3.103   5.614   5.163  0.2169  0.1846  0.3438
10089SOL     OW32260   3.988   5.779   8.786  0.4292 -0.2233 -0.4278
10089SOL    HW132261   3.957   5.730   8.710  0.3043 -0.0495 -0.4891
10089SOL    HW232262   3.947   5.737   8.861 -0.5493  0.4662 -0.5642
10090SOL     OW32263   3.043   6.380   1.928  0.2436 -0.1572  0.0001
10090SOL    HW132264   2.991   6.306   1.960 -0.1446  0.7901  1.7207
10090SOL    HW232265   3.111   6.340   1.874  0.2441 -1.8290  1.1378
10091SOL     OW32266   7.590   7.105   7.472  0.3343 -0.0454 -0.4236
10091SOL    HW132267   7.653   7.176   7.462  0.5847 -0.1068  0.5721
10091SOL    HW232268   7.517   7.129   7.416 -0.2745  1.8242  1.0686
10092SOL     OW32269   7.137   1.456   0.713 -0.3979  0.0487  0.3267
10092SOL    HW132270   7.092   1.435   0.795 -1.2415  0.9244  0.1054
10092SOL    HW232271   7.192   1.531   0.735 -1.3077  0.8592 -0.1096
10093SOL     OW32272   3.953   2.556   3.838 -0.1254  0.5847 -0.2077
10093SOL    HW132273   3.990   2.477   3.877 -2.8787 -0.7872 -0.1446
10093SOL    HW232274   4.004   2.569   3.758  2.7424  0.9371  1.5081
10094SOL     OW32275   3.032   7.450   5.159 -0.3407  0.6092  0.1005
10094SOL    HW132276   2.959   7.391   5.177 -1.5141  1.2845 -2.1552
10094SOL    HW232277   2.998   7.512   5.095  2.0924  1.2506 -0.6755
10095SOL     OW32278   8.553   3.326   5.412  0.4931 -0.1731  0.0175
10095SOL    HW132279   8.471   3.374   5.423  0.3500 -0.5534  0.6953
10095SOL    HW232280   8.616   3.374   5.465  0.4577 -0.4749  0.3345
10096SOL     OW32281   6.984   4.663   4.282 -0.4715  0.4075 -0.9989
10096SOL    HW132282   6.892   4.636   4.286 -0.7471  1.1762 -1.7500
10096SOL    HW232283   6.988   4.722   4.207  0.3596  1.4596 -0.1572
10097SOL     OW32284   7.720   2.297   3.805  0.0735 -0.0206 -0.0564
10097SOL    HW132285   7.694   2.289   3.897  0.0746 -5.2028 -0.2408
10097SOL    HW232286   7.642   2.333   3.762 -0.3031  1.5024  1.7231
10098SOL     OW32287   2.403   7.150   2.470 -0.4717  0.3982 -0.8655
10098SOL    HW132288   2.345   7.081   2.500 -0.3876  0.8174  0.2980
10098SOL    HW232289   2.420   7.204   2.547  2.4810 -0.3954 -0.8225
10099SOL     OW32290   8.201   8.102   5.754  0.5358  0.1838 -0.3107
10099SOL    HW132291   8.242   8.016   5.767  0.0447  0.1706  1.3770
10099SOL    HW232292   8.275   8.162   5.741  0.8615 -0.5758 -2.3610
10100SOL     OW32293   4.381   3.320   0.431  1.0123 -0.7946 -0.0259
10100SOL    HW132294   4.359   3.228   0.418 -2.4136 -0.5819  2.7586
10100SOL    HW232295   4.338   3.365   0.358  0.1038 -1.1689  0.2736
10101SOL     OW32296   6.105   4.029   8.563 -0.5151 -0.1326 -0.6676
10101SOL    HW132297   6.176   4.093   8.571  0.2363 -1.2037  2.6894
10101SOL    HW232298   6.149   3.945   8.560 -1.5898 -0.6835 -2.2768
10102SOL     OW32299   3.023   2.597   5.898 -0.0973 -0.3413  0.3112
10102SOL    HW132300   3.012   2.593   5.993 -0.8487 -0.5372  0.2257
10102SOL    HW232301   3.015   2.507   5.868 -2.1637 -0.0849 -0.1390
10103SOL     OW32302   0.326   1.189   7.040  0.1140  0.1999 -0.1249
10103SOL    HW132303   0.297   1.098   7.035 -1.2422  0.6667 -1.7966
10103SOL    HW232304   0.397   1.189   7.104  1.4837 -2.3800 -1.5085
10104SOL     OW32305   4.701   3.960   6.070  0.4625 -0.2965  0.2263
10104SOL    HW132306   4.672   3.876   6.035  0.2070 -0.8259  1.6350
10104SOL    HW232307   4.774   3.938   6.128 -0.0086  0.3688  1.0949
10105SOL     OW32308   5.624   0.315   2.339  0.3528  0.1231 -0.3592
10105SOL    HW132309   5.558   0.293   2.273 -2.2511 -0.3104  2.2290
10105SOL    HW232310   5.663   0.396   2.307 -3.4471  2.0076 -0.7075
10106SOL     OW32311   2.912   2.165   0.531  0.4802  0.6375  0.1114
10106SOL    HW132312   2.852   2.218   0.585  0.2449 -0.6083  1.1244
10106SOL    HW232313   2.856   2.122   0.467  0.4497  0.3973  0.2977
10107SOL     OW32314   1.712   0.611   6.484  0.6437 -0.2489  0.2281
10107SOL    HW132315   1.806   0.607   6.503  0.6901 -1.0102 -0.1557
10107SOL    HW232316   1.674   0.542   6.539  0.2406  0.3844  0.7586
10108SOL     OW32317   4.233   3.193   0.090 -0.3257  0.0339 -0.2742
10108SOL    HW132318   4.262   3.135   0.161  2.5794  1.2370 -0.3103
10108SOL    HW232319   4.249   3.281   0.124 -0.2576  0.6628 -1.8711
10109SOL     OW32320   6.633   4.306   3.484 -0.0448  0.6003  0.1533
10109SOL    HW132321   6.658   4.235   3.425 -1.2645 -0.9854  1.4512
10109SOL    HW232322   6.716   4.350   3.505  0.9598 -1.3155  0.4040
10110SOL     OW32323   2.576   5.376   6.601 -0.0911  0.3967  0.1209
10110SOL    HW132324   2.566   5.471   6.608 -0.6367  0.2895  0.9174
10110SOL    HW232325   2.659   5.364   6.555 -1.2837  1.2983 -2.4989
10111SOL     OW32326   6.434   4.090   3.616 -0.2894  0.3277 -0.0219
10111SOL    HW132327   6.502   4.150   3.584 -1.4393  1.5360 -0.2898
10111SOL    HW232328   6.419   4.031   3.543  0.4464  0.0625  0.0312
10112SOL     OW32329   5.657   0.090   5.067  0.2663  0.5050 -0.1416
10112SOL    HW132330   5.706   0.046   4.997 -0.1255 -0.0252 -0.0835
10112SOL    HW232331   5.585   0.134   5.021  0.4685  0.8188 -0.1611
10113SOL     OW32332   8.120   7.251   7.219 -0.1055  0.5061 -0.2003
10113SOL    HW132333   8.177   7.196   7.166  0.3072  0.3391  0.4026
10113SOL    HW232334   8.156   7.340   7.209 -0.2823  0.5408 -0.5309
10114SOL     OW32335   8.022   6.002   4.958 -0.1750 -0.3819 -0.3317
10114SOL    HW132336   8.037   6.049   4.876 -0.0671  1.1896  0.5420
10114SOL    HW232337   7.989   5.917   4.931  1.3388 -0.4852 -2.0397
10115SOL     OW32338   5.129   3.738   1.990 -0.4505 -0.4184 -0.1603
10115SOL    HW132339   5.101   3.647   2.003 -0.1735 -0.7501 -1.6887
10115SOL    HW232340   5.224   3.732   1.978 -0.3891  0.1118  0.0251
10116SOL     OW32341   3.661   8.538   8.352 -0.2787 -0.7756 -0.1529
10116SOL    HW132342   3.729   8.589   8.308 -1.3392 -0.0605 -1.0239
10116SOL    HW232343   3.704   8.456   8.375  1.1619  0.0529  0.2536
10117SOL     OW32344   8.536   5.063   0.459 -0.5845  0.0276 -0.4118
10117SOL    HW132345   8.482   5.035   0.385 -1.3884 -0.8836  0.4962
10117SOL    HW232346   8.506   5.152   0.479 -0.7274  0.0760 -0.8329
10118SOL     OW32347   0.735   0.673   2.326  0.3165 -0.1965  0.3189
10118SOL    HW132348   0.801   0.713   2.269  0.1853 -1.0911 -0.4909
10118SOL    HW232349   0.786   0.621   2.388  0.4226  0.0732  0.4595
10119SOL     OW32350   3.918   6.388   2.444 -0.2920  0.0013  0.1977
10119SOL    HW132351   3.858   6.462   2.437  0.8399  0.9912  0.5353
10119SOL    HW232352   3.919   6.348   2.357 -0.3339  0.8650 -0.2043
10120SOL     OW32353   4.759   2.693   8.489  0.0450 -0.7743 -0.2704
10120SOL    HW132354   4.716   2.750   8.426 -1.6874 -1.2763  0.4149
10120SOL    HW232355   4.837   2.662   8.443  0.1124  0.7687 -1.2655
10121SOL     OW32356   6.059   7.933   6.259  0.7448  0.2837  0.0585
10121SOL    HW132357   6.061   7.923   6.354  0.5044 -0.1294  0.0203
10121SOL    HW232358   6.040   7.846   6.226  4.2173 -0.4024 -0.5222
10122SOL     OW32359   4.171   8.598   3.404  0.6182  0.0531  0.1594
10122SOL    HW132360   4.133   8.663   3.344  1.2635  0.9046  0.6604
10122SOL    HW232361   4.138   8.623   3.490  1.3183  0.0563  0.4313
10123SOL     OW32362   3.937   3.246   2.646  0.3180 -0.1593  0.6684
10123SOL    HW132363   3.883   3.182   2.600  1.4581 -0.5898 -0.1164
10123SOL    HW232364   3.878   3.319   2.663 -1.2563 -1.7353  2.3914
10124SOL     OW32365   7.342   6.585   6.075  0.5998 -0.0668 -0.1228
10124SOL    HW132366   7.326   6.621   5.988 -0.2337 -0.2531 -0.0529
10124SOL    HW232367   7.417   6.527   6.064 -0.7084 -1.6262 -1.1365
10125SOL     OW32368   3.804   3.072   5.793 -0.1205 -0.1419  0.0773
10125SOL    HW132369   3.813   2.977   5.804  1.7187  0.0800  0.9102
10125SOL    HW232370   3.889   3.107   5.820 -0.9501  1.8009  0.3215
10126SOL     OW32371   2.337   1.838   0.639  0.4533 -0.2115  0.3750
10126SOL    HW132372   2.289   1.783   0.701  1.8008  0.3148  1.9478
10126SOL    HW232373   2.323   1.928   0.671  1.7042  0.0113  0.3312
10127SOL     OW32374   8.324   5.144   6.733  0.3326  0.3197 -0.3498
10127SOL    HW132375   8.304   5.054   6.706  0.2997  0.2231 -0.0076
10127SOL    HW232376   8.370   5.181   6.658 -1.7154  0.7873 -1.4421
10128SOL     OW32377   6.177   1.938   5.556 -0.6264  0.0461  0.3261
10128SOL    HW132378   6.221   2.004   5.503  2.6210 -2.6924 -0.7914
10128SOL    HW232379   6.098   1.916   5.507  0.0166  0.7001 -1.0461
10129SOL     OW32380   5.039   3.252   0.379 -0.5729 -0.0919  0.8658
10129SOL    HW132381   5.083   3.250   0.294 -0.2066 -1.8085  1.0699
10129SOL    HW232382   5.080   3.325   0.425 -1.4169  1.4799 -0.7296
10130SOL     OW32383   6.525   0.374   5.749  0.0364  0.5885 -0.4805
10130SOL    HW132384   6.440   0.412   5.727 -2.3549 -2.8295  1.9219
10130SOL    HW232385   6.532   0.383   5.844  1.7539 -0.3875 -0.4789
10131SOL     OW32386   7.636   1.741   5.820 -0.0144  0.3851 -0.1281
10131SOL    HW132387   7.665   1.650   5.822 -0.0342  0.2654 -2.3616
10131SOL    HW232388   7.542   1.735   5.803 -0.5025  0.8317  2.1534
10132SOL     OW32389   4.767   4.904   2.708  0.2286  0.3908  0.3216
10132SOL    HW132390   4.729   4.937   2.789 -1.6991 -0.8596 -0.0077
10132SOL    HW232391   4.811   4.980   2.670 -3.2515  2.4673  0.0253
10133SOL     OW32392   3.478   5.552   8.191  0.5171 -0.0827 -0.1884
10133SOL    HW132393   3.399   5.518   8.233 -0.7135  0.3332 -2.0345
10133SOL    HW232394   3.462   5.646   8.181  0.6464 -0.1911 -1.6993
10134SOL     OW32395   1.059   2.134   7.588 -0.3240 -0.1706  0.3072
10134SOL    HW132396   1.115   2.183   7.647  0.0586 -0.8048  0.4820
10134SOL    HW232397   1.050   2.048   7.629  0.1586 -0.7022 -0.6816
10135SOL     OW32398   6.893   0.367   5.796  0.6453 -0.2600  0.1526
10135SOL    HW132399   6.877   0.333   5.884  3.1258 -0.6320  0.5532
10135SOL    HW232400   6.971   0.423   5.806  0.2245  0.7235 -1.5854
10136SOL     OW32401   8.290   1.830   0.841 -0.2421  0.5310 -0.1250
10136SOL    HW132402   8.296   1.812   0.935 -0.5906  0.1777 -0.1669
10136SOL    HW232403   8.373   1.798   0.806  0.5491  2.0682  0.2694
10137SOL     OW32404   5.174   7.068   4.132 -0.1189 -0.2674 -0.3612
10137SOL    HW132405   5.167   7.001   4.200 -0.6287 -0.6103 -0.7429
10137SOL    HW232406   5.129   7.030   4.057  1.8790 -0.6096 -1.4629
10138SOL     OW32407   0.384   2.669   4.505 -0.2192  0.5749 -0.7441
10138SOL    HW132408   0.321   2.709   4.565 -0.1928  1.4048 -1.2593
10138SOL    HW232409   0.463   2.657   4.558 -0.8317 -0.6286 -0.0480
10139SOL     OW32410   2.631   7.397   1.488 -0.7720  0.3838 -0.7877
10139SOL    HW132411   2.626   7.465   1.555  2.2099  0.1892 -0.2401
10139SOL    HW232412   2.638   7.445   1.405 -0.7492  0.7040 -0.5995
10140SOL     OW32413   8.755   6.538   1.041  0.1941  0.4900  0.5749
10140SOL    HW132414   8.759   6.634   1.035 -2.6189  0.5977 -2.1359
10140SOL    HW232415   8.669   6.520   1.079 -0.8442 -0.8815 -2.1966
10141SOL     OW32416   8.013   3.144   8.884  0.6954 -0.1430 -0.9141
10141SOL    HW132417   8.061   3.209   8.833 -0.7632 -0.4943 -2.8545
10141SOL    HW232418   8.056   3.061   8.866  0.5376 -0.1840 -1.1029
10142SOL     OW32419   8.412   3.286   8.327  0.0398  0.0831  0.3339
10142SOL    HW132420   8.460   3.352   8.378 -0.0688  0.0547  0.4699
10142SOL    HW232421   8.455   3.287   8.241  0.0896  0.2753  0.3610
10143SOL     OW32422   4.027   3.071   0.943 -0.3731 -0.0447  0.1540
10143SOL    HW132423   4.023   2.981   0.910 -0.5184 -0.5006  1.3467
10143SOL    HW232424   4.082   3.064   1.021 -0.0395  0.9892  0.0215
10144SOL     OW32425   1.784   8.725   5.459 -0.8507 -0.6873  0.2473
10144SOL    HW132426   1.768   8.647   5.406 -0.0127 -2.8663  2.9411
10144SOL    HW232427   1.713   8.726   5.522  0.6395 -1.0070  2.0316
10145SOL     OW32428   7.012   4.142   3.399 -0.2929  0.1973  0.8636
10145SOL    HW132429   7.084   4.136   3.337  0.4039 -0.3733  1.7049
10145SOL    HW232430   7.040   4.209   3.462 -1.3196  1.3208  0.1667
10146SOL     OW32431   8.620   3.784   1.069  0.2573  0.4541  0.2337
10146SOL    HW132432   8.677   3.711   1.091  1.9574  1.8241  0.5807
10146SOL    HW232433   8.545   3.774   1.127  0.2668 -1.1939  0.0171
10147SOL     OW32434   6.781   1.134   1.039  0.1769 -0.5598 -0.1428
10147SOL    HW132435   6.748   1.184   1.113  0.4499 -1.9169  0.9240
10147SOL    HW232436   6.847   1.076   1.076  0.7540 -0.8499 -1.5521
10148SOL     OW32437   4.118   0.610   2.320  0.1348 -0.2519 -0.1874
10148SOL    HW132438   4.027   0.616   2.350  0.5644  0.6174  1.0378
10148SOL    HW232439   4.161   0.555   2.385  0.3551 -1.2022 -1.1208
10149SOL     OW32440   7.359   0.692   1.120 -0.3174  0.2008  0.1846
10149SOL    HW132441   7.310   0.629   1.172 -0.6803  0.3097 -0.0190
10149SOL    HW232442   7.424   0.640   1.073  0.8542  0.2535  1.6901
10150SOL     OW32443   2.118   8.432   2.562 -0.2268  0.1697 -0.0791
10150SOL    HW132444   2.121   8.427   2.466 -1.3811  0.4596 -0.1450
10150SOL    HW232445   2.101   8.524   2.581  1.8931  0.4856  0.4918
10151SOL     OW32446   1.058   6.888   5.388 -0.0113  0.0473 -0.5403
10151SOL    HW132447   1.027   6.798   5.399  0.1615 -0.1360 -1.4612
10151SOL    HW232448   1.029   6.933   5.467  0.3926 -0.9483  0.1946
10152SOL     OW32449   6.184   1.770   0.517  0.4073  0.1664 -0.3087
10152SOL    HW132450   6.151   1.729   0.597  0.5381  0.5336 -0.0644
10152SOL    HW232451   6.201   1.861   0.542 -0.4571  0.5345 -1.0017
10153SOL     OW32452   5.118   4.450   5.923  0.1922  0.3801  0.8178
10153SOL    HW132453   5.120   4.534   5.876  1.4448  1.2121  2.3022
10153SOL    HW232454   5.190   4.400   5.885  0.1382  0.3902  0.6984
10154SOL     OW32455   3.793   2.989   8.087 -0.3885  0.1455  0.8852
10154SOL    HW132456   3.707   2.977   8.125 -0.2287  0.0474  1.2168
10154SOL    HW232457   3.808   3.084   8.090 -1.1384  0.3441 -0.6163
10155SOL     OW32458   8.360   2.361   1.184 -0.2227 -0.0007 -0.5785
10155SOL    HW132459   8.442   2.408   1.199 -0.2218  0.2377 -1.3158
10155SOL    HW232460   8.386   2.282   1.138 -0.1773 -0.9494  0.9827
10156SOL     OW32461   3.228   1.865   7.406 -0.0130 -0.0544 -0.1545
10156SOL    HW132462   3.199   1.778   7.433 -1.6125  1.1271  2.1733
10156SOL    HW232463   3.209   1.868   7.312 -3.3473 -1.0120  0.3588
10157SOL     OW32464   6.519   6.265   5.653 -0.1165 -0.3759  0.3642
10157SOL    HW132465   6.567   6.342   5.624 -0.5014 -0.8533 -1.7230
10157SOL    HW232466   6.427   6.291   5.647 -0.4878 -1.9231 -3.8166
10158SOL     OW32467   5.345   8.240   7.742 -0.4006  0.1713  0.3914
10158SOL    HW132468   5.327   8.230   7.649 -2.4356 -1.4334  0.8880
10158SOL    HW232469   5.440   8.256   7.747 -0.4075  1.3641 -1.9702
10159SOL     OW32470   1.019   6.752   7.586  0.1267 -0.1876  0.0948
10159SOL    HW132471   1.105   6.714   7.603 -0.2717 -0.7241  1.0114
10159SOL    HW232472   1.029   6.798   7.503  0.8390 -1.6510 -0.6767
10160SOL     OW32473   5.546   8.637   3.613  0.1483 -0.0012  0.6017
10160SOL    HW132474   5.566   8.676   3.528  0.5575 -0.2295  0.5912
10160SOL    HW232475   5.608   8.678   3.674 -0.2700  0.3020  0.8289
10161SOL     OW32476   0.374   3.596   2.162 -0.3195  0.1151  0.3862
10161SOL    HW132477   0.282   3.624   2.172 -0.4276 -0.6050  1.6723
10161SOL    HW232478   0.425   3.675   2.181 -0.6729  0.2736  0.7010
10162SOL     OW32479   4.574   3.075   5.924  0.0451  0.0152 -0.0612
10162SOL    HW132480   4.668   3.088   5.913  0.0966 -1.3927 -1.7979
10162SOL    HW232481   4.555   3.104   6.013  2.2846 -0.5283  0.6349
10163SOL     OW32482   2.822   6.222   6.155  0.0850  0.0767 -0.4937
10163SOL    HW132483   2.759   6.294   6.159 -0.5331 -0.3889 -1.3669
10163SOL    HW232484   2.798   6.165   6.228 -1.8554 -1.1227 -1.9636
10164SOL     OW32485   5.708   4.120   7.389  0.2560 -0.3451  0.2179
10164SOL    HW132486   5.646   4.052   7.361 -0.3373 -0.7818  2.3743
10164SOL    HW232487   5.788   4.073   7.409  0.2601 -0.2277  0.4802
10165SOL     OW32488   0.400   1.497   8.418  0.0952 -0.3065 -0.1960
10165SOL    HW132489   0.419   1.589   8.401  1.7453 -0.4543  0.6271
10165SOL    HW232490   0.319   1.499   8.470  1.5060  0.9383  2.1808
10166SOL     OW32491   2.477   8.740   3.708  0.3584  0.5576 -0.0772
10166SOL    HW132492   2.556   8.790   3.691  1.1775 -0.1799  1.3406
10166SOL    HW232493   2.506   8.649   3.714 -1.1819 -0.2813 -3.2222
10167SOL     OW32494   7.433   1.927   0.188 -0.5034  0.0920 -0.2099
10167SOL    HW132495   7.369   1.878   0.238 -1.7013  0.7615 -1.0416
10167SOL    HW232496   7.430   2.016   0.225  0.8054 -0.1425  0.5181
10168SOL     OW32497   7.293   5.801   4.764 -0.4555  0.2660 -0.4190
10168SOL    HW132498   7.325   5.781   4.676 -0.2615 -0.0305 -0.2836
10168SOL    HW232499   7.223   5.737   4.778  0.2814 -0.4585  0.0837
10169SOL     OW32500   7.328   6.438   2.633 -0.6633  0.3186  0.1875
10169SOL    HW132501   7.368   6.459   2.549 -0.2040  0.4292  0.4321
10169SOL    HW232502   7.365   6.502   2.694 -1.7555  0.9012  0.2741
10170SOL     OW32503   0.319   0.694   5.574  0.5739  0.9850  0.5540
10170SOL    HW132504   0.345   0.773   5.622  0.4666  1.5624 -0.3017
10170SOL    HW232505   0.329   0.623   5.637  2.9608  1.3380  0.6738
10171SOL     OW32506   0.395   7.985   8.572 -0.3539 -0.5712 -0.0944
10171SOL    HW132507   0.404   7.959   8.481 -1.0126 -0.0437 -0.3220
10171SOL    HW232508   0.328   8.053   8.571 -1.4804 -1.6142  0.9784
10172SOL     OW32509   5.466   5.634   5.481  0.3200 -0.0074  0.1252
10172SOL    HW132510   5.561   5.632   5.470  0.1782 -0.7275 -1.1139
10172SOL    HW232511   5.447   5.564   5.543  0.4881 -0.6921 -0.5876
10173SOL     OW32512   1.145   0.139   5.928  0.0970 -0.2098  0.0231
10173SOL    HW132513   1.050   0.132   5.919  0.0296 -1.4505  1.2376
10173SOL    HW232514   1.161   0.232   5.943 -0.8381  0.1263 -0.9655
10174SOL     OW32515   3.786   0.638   7.481 -0.5854  0.0828 -0.0245
10174SOL    HW132516   3.725   0.607   7.547 -1.4120  0.5240 -0.5485
10174SOL    HW232517   3.766   0.587   7.403 -0.9031  0.8351 -0.4537
10175SOL     OW32518   7.514   7.702   2.497  0.2779 -0.3723 -0.1205
10175SOL    HW132519   7.501   7.618   2.542 -1.2632  0.0474  0.2634
10175SOL    HW232520   7.458   7.696   2.419 -0.3671  0.5343  0.2569
10176SOL     OW32521   8.669   4.126   6.136  0.2781 -0.0224 -0.5458
10176SOL    HW132522   8.733   4.058   6.113  1.7396  0.2649  2.2731
10176SOL    HW232523   8.721   4.197   6.172 -1.5734  0.2051  1.9296
10177SOL     OW32524   2.571   5.735   7.107 -0.3630  0.5205 -0.2986
10177SOL    HW132525   2.604   5.681   7.178  0.3634  1.4473  0.0936
10177SOL    HW232526   2.486   5.697   7.084 -0.5530  0.1427  0.9834
10178SOL     OW32527   0.329   3.685   0.931  0.5804  0.3937  0.3896
10178SOL    HW132528   0.313   3.772   0.967 -2.1655  0.9396 -1.7383
10178SOL    HW232529   0.369   3.702   0.845 -0.2068 -0.3825 -0.1474
10179SOL     OW32530   6.527   2.961   1.658  0.1079  0.5575  0.1562
10179SOL    HW132531   6.519   3.055   1.674 -0.9726  0.3205  1.1763
10179SOL    HW232532   6.461   2.922   1.715  0.6493 -0.8336 -0.1369
10180SOL     OW32533   5.766   2.025   5.417 -0.4076 -0.0693  0.4266
10180SOL    HW132534   5.729   2.085   5.481 -0.4510  0.1265  0.2199
10180SOL    HW232535   5.692   1.971   5.389 -0.2054 -0.7743  1.2156
10181SOL     OW32536   0.737   1.556   0.768  0.1774 -0.0675 -0.3348
10181SOL    HW132537   0.758   1.470   0.732  0.1702 -0.3455  0.3220
10181SOL    HW232538   0.814   1.610   0.748  0.5617 -0.4693  0.0434
10182SOL     OW32539   7.643   7.327   2.122  0.4476 -0.1356  0.4527
10182SOL    HW132540   7.578   7.311   2.053  0.7428  2.1739 -0.4503
10182SOL    HW232541   7.727   7.324   2.076  0.8030 -0.5527  1.1186
10183SOL     OW32542   4.983   7.961   5.732  0.3188  0.4795 -0.2493
10183SOL    HW132543   5.062   8.004   5.764 -0.6338  2.2147 -0.1584
10183SOL    HW232544   4.928   7.950   5.809  0.0244  0.2299 -0.4902
10184SOL     OW32545   4.928   2.443   5.516  0.5572  0.3460  0.1193
10184SOL    HW132546   4.964   2.371   5.569 -0.2709  0.4236  0.8047
10184SOL    HW232547   4.856   2.402   5.468  0.4838  0.5759  0.0357
10185SOL     OW32548   6.913   7.118   1.874 -0.2131  0.3933 -0.3312
10185SOL    HW132549   6.840   7.061   1.899  0.3956 -0.0395  0.4901
10185SOL    HW232550   6.991   7.073   1.906  0.4185  0.9104 -1.0898
10186SOL     OW32551   0.828   1.227   4.267 -0.3258  0.1013 -0.0723
10186SOL    HW132552   0.791   1.187   4.346  0.8711  0.4412  0.6872
10186SOL    HW232553   0.806   1.320   4.275 -1.6595 -0.1065 -1.0057
10187SOL     OW32554   8.039   8.088   2.919 -0.1010  0.8258  0.1216
10187SOL    HW132555   8.052   8.174   2.879  2.1342  0.0887 -0.9178
10187SOL    HW232556   7.995   8.036   2.852  0.5360  0.5547 -0.0910
10188SOL     OW32557   2.546   6.119   4.705 -0.0141 -0.3463  0.1745
10188SOL    HW132558   2.549   6.208   4.740  2.7064  0.4782 -1.8001
10188SOL    HW232559   2.583   6.064   4.774 -0.4392  0.2334  0.8800
10189SOL     OW32560   5.090   0.468   5.805 -0.0125 -0.4525 -0.2849
10189SOL    HW132561   5.138   0.465   5.722 -0.5251 -1.9518 -0.5635
10189SOL    HW232562   5.012   0.416   5.789  0.5789 -2.0263  1.5613
10190SOL     OW32563   8.203   1.565   2.471  0.1157 -0.2003  0.6378
10190SOL    HW132564   8.211   1.648   2.518 -0.6219  1.8879 -2.5973
10190SOL    HW232565   8.285   1.520   2.487  0.9445  1.5732  1.7158
10191SOL     OW32566   2.464   2.570   1.501 -0.1763 -0.0615  0.5407
10191SOL    HW132567   2.399   2.620   1.451  0.3358 -0.8866 -1.0299
10191SOL    HW232568   2.457   2.603   1.590 -0.3248  2.3326 -0.2856
10192SOL     OW32569   6.489   3.819   2.880  0.1757  0.0523  0.9028
10192SOL    HW132570   6.575   3.845   2.912  1.2597 -2.1267 -0.0068
10192SOL    HW232571   6.427   3.875   2.927  2.0707  1.6990  1.5571
10193SOL     OW32572   3.150   4.662   4.659 -0.1392 -0.5230 -0.5873
10193SOL    HW132573   3.171   4.617   4.741  1.7731  0.2294 -0.5998
10193SOL    HW232574   3.235   4.696   4.629 -1.1582  1.0853 -1.7580
10194SOL     OW32575   0.947   6.843   2.826  0.1801  0.3055  0.4564
10194SOL    HW132576   0.982   6.932   2.821  0.4296  0.1944  0.1876
10194SOL    HW232577   1.023   6.786   2.809 -0.2714  0.0842 -0.9662
10195SOL     OW32578   5.481   5.219   3.815 -0.6730 -0.6202  0.0125
10195SOL    HW132579   5.505   5.206   3.723 -0.4469 -1.0367  0.1283
10195SOL    HW232580   5.558   5.189   3.864 -0.4702  0.3727  0.3194
10196SOL     OW32581   7.520   6.841   2.274  0.5580  0.0498 -0.1585
10196SOL    HW132582   7.449   6.797   2.228  0.9633  0.0580 -0.8000
10196SOL    HW232583   7.512   6.811   2.365  1.2004 -1.8801 -0.6934
10197SOL     OW32584   5.143   3.420   0.603 -0.5998 -0.3573 -0.1529
10197SOL    HW132585   5.147   3.345   0.663 -3.0834 -0.7716 -0.3803
10197SOL    HW232586   5.233   3.431   0.573  0.1154 -2.2922  1.0523
10198SOL     OW32587   7.490   3.757   0.336  0.1134 -0.0607  0.4786
10198SOL    HW132588   7.397   3.781   0.335  0.4800  1.5065 -0.5688
10198SOL    HW232589   7.490   3.661   0.341 -1.5618 -0.0977  0.4321
10199SOL     OW32590   0.040   2.855   5.165 -0.2284  0.4878 -0.2925
10199SOL    HW132591   0.027   2.762   5.149 -1.6382  0.7096 -0.5910
10199SOL    HW232592  -0.033   2.898   5.120 -1.3378  1.5131  2.2507
10200SOL     OW32593   6.690   2.562   1.065  0.1315  0.1818 -0.0489
10200SOL    HW132594   6.631   2.575   1.140 -1.2691 -0.3197 -1.0181
10200SOL    HW232595   6.768   2.613   1.087 -1.2930  2.2400  0.5695
10201SOL     OW32596   1.034   4.744   8.589 -0.4501  0.4646  0.2480
10201SOL    HW132597   0.997   4.690   8.658 -0.9993 -0.0370 -0.4321
10201SOL    HW232598   1.112   4.696   8.561 -1.8991 -0.9679 -1.5959
10202SOL     OW32599   2.212   3.863   1.328  0.6063  0.0874 -0.1738
10202SOL    HW132600   2.255   3.780   1.307 -1.3496 -0.7890 -0.9207
10202SOL    HW232601   2.281   3.928   1.320  2.1237 -1.4049  0.1050
10203SOL     OW32602   8.148   2.605   7.348 -0.2767 -0.3007 -0.0557
10203SOL    HW132603   8.120   2.513   7.351  0.3509 -0.4885  0.3989
10203SOL    HW232604   8.099   2.648   7.417  0.2896 -0.5561  0.5165
10204SOL     OW32605   7.427   3.844   6.720 -0.3092  0.0409 -0.0993
10204SOL    HW132606   7.379   3.927   6.717  0.0256  0.7434  4.8724
10204SOL    HW232607   7.358   3.778   6.722 -1.1609  0.8228  3.2800
10205SOL     OW32608   1.137   0.144   5.164 -0.6110  0.0438 -0.0583
10205SOL    HW132609   1.100   0.190   5.089  1.3786  0.2128 -1.0092
10205SOL    HW232610   1.096   0.185   5.240  0.0981  2.5386 -0.9144
10206SOL     OW32611   8.495   0.790   5.045 -0.3151  0.3092 -0.0537
10206SOL    HW132612   8.525   0.878   5.069  1.3144 -0.0010 -0.8510
10206SOL    HW232613   8.529   0.733   5.114  0.5051  0.0176 -0.6966
10207SOL     OW32614   1.014   2.847   1.506  0.1305  0.4257  0.2700
10207SOL    HW132615   0.922   2.821   1.513 -0.1682  1.6308  1.1003
10207SOL    HW232616   1.015   2.914   1.438  0.1411  1.4736  1.2865
10208SOL     OW32617   1.715   4.452   5.507  0.1215 -0.1577 -0.0805
10208SOL    HW132618   1.808   4.473   5.517 -0.4397  1.8834  1.3739
10208SOL    HW232619   1.687   4.427   5.595 -0.3985 -2.3679 -0.8095
10209SOL     OW32620   1.325   2.102   0.341 -0.1297 -0.4492 -0.0746
10209SOL    HW132621   1.376   2.175   0.377 -0.4555 -0.4261  0.3561
10209SOL    HW232622   1.257   2.145   0.288  0.1698 -0.4724 -0.4802
10210SOL     OW32623   6.608   0.851   5.430 -0.8796 -0.3758  0.5040
10210SOL    HW132624   6.555   0.908   5.375  0.7616 -0.6923 -1.5144
10210SOL    HW232625   6.687   0.902   5.449 -0.1784 -1.3021  0.1629
10211SOL     OW32626   4.723   0.178   8.298 -0.6345  0.4189 -0.0550
10211SOL    HW132627   4.642   0.128   8.293 -0.5516  0.3646 -1.2152
10211SOL    HW232628   4.697   0.264   8.331 -1.0620  0.2036  0.1746
10212SOL     OW32629   6.042   7.622   4.834  0.2963 -0.3386  0.3977
10212SOL    HW132630   5.967   7.563   4.836  0.2927 -0.4160 -1.0193
10212SOL    HW232631   6.118   7.563   4.837  0.2920 -0.3745 -0.1100
10213SOL     OW32632   3.129   0.551   3.387  0.0984  0.1875 -0.3935
10213SOL    HW132633   3.083   0.633   3.364 -1.1030 -0.1216  0.7738
10213SOL    HW232634   3.113   0.540   3.480  1.9668 -0.3595 -0.0955
10214SOL     OW32635   2.424   6.237   7.353  0.2124  0.0247 -0.3821
10214SOL    HW132636   2.395   6.194   7.272 -0.1604 -2.0771  0.7800
10214SOL    HW232637   2.417   6.168   7.420  0.6141  1.6569  1.4215
10215SOL     OW32638   1.959   5.511   7.013 -0.2910  0.2906  0.3105
10215SOL    HW132639   2.008   5.572   6.958 -1.6585 -1.4428 -3.1106
10215SOL    HW232640   2.025   5.463   7.062  1.3981 -0.6335 -2.6640
10216SOL     OW32641   2.266   3.188   8.197 -0.8579  0.4526 -0.0698
10216SOL    HW132642   2.292   3.186   8.105 -2.8289  1.0703 -0.6827
10216SOL    HW232643   2.229   3.102   8.214 -1.0533  0.5446 -0.0279
10217SOL     OW32644   7.289   5.383   2.275 -0.0606  0.3008  0.3066
10217SOL    HW132645   7.256   5.336   2.351 -2.0703 -1.2717 -1.4088
10217SOL    HW232646   7.246   5.469   2.279  0.5514  0.5696  1.3833
10218SOL     OW32647   7.653   6.407   6.333 -0.1240  0.5786 -0.0248
10218SOL    HW132648   7.631   6.437   6.421  0.9261  0.8404  0.1529
10218SOL    HW232649   7.574   6.362   6.303 -1.0559  1.8199  0.4487
10219SOL     OW32650   5.933   3.100   5.672  0.0139 -0.3110  0.1993
10219SOL    HW132651   6.008   3.157   5.657 -1.6194  2.0808  0.4739
10219SOL    HW232652   5.872   3.120   5.601 -1.2495 -0.5577  1.1610
10220SOL     OW32653   3.796   8.152   6.164 -0.1174 -0.2567  0.5897
10220SOL    HW132654   3.757   8.152   6.076  0.3968  3.1271  0.2431
10220SOL    HW232655   3.770   8.236   6.202  0.7374 -1.0920  3.2130
10221SOL     OW32656   1.274   3.166   5.877 -0.2756  0.0713 -0.0716
10221SOL    HW132657   1.328   3.088   5.860  1.3968  1.4372 -1.4441
10221SOL    HW232658   1.190   3.146   5.835  0.1182 -1.0049 -0.3930
10222SOL     OW32659   6.414   5.355   5.277 -0.5431  0.1267 -0.5116
10222SOL    HW132660   6.340   5.415   5.290 -0.3142  0.0439  1.3614
10222SOL    HW232661   6.419   5.304   5.357  0.8980 -0.6203 -1.0301
10223SOL     OW32662   4.374   6.212   7.264  0.3145 -0.1179 -0.2267
10223SOL    HW132663   4.452   6.157   7.272  2.0262  2.2636  1.0347
10223SOL    HW232664   4.359   6.219   7.170  0.4056 -2.1685 -0.4285
10224SOL     OW32665   7.051   0.900   5.748 -0.0070 -0.0172 -0.1133
10224SOL    HW132666   7.068   0.816   5.705 -2.0290 -0.3458 -0.3644
10224SOL    HW232667   6.970   0.886   5.797 -0.0273  1.6083  0.3614
10225SOL     OW32668   6.649   0.879   5.763  0.1994 -0.4288 -0.2823
10225SOL    HW132669   6.707   0.813   5.725 -0.0724 -0.8420  0.0052
10225SOL    HW232670   6.568   0.832   5.782  0.3899 -0.2960  0.9813
10226SOL     OW32671   0.957   5.760   7.905  0.0178  0.7132 -0.2559
10226SOL    HW132672   0.943   5.766   7.999 -2.6813  1.3201 -0.6132
10226SOL    HW232673   0.982   5.848   7.879 -1.1402  1.0266 -0.3412
10227SOL     OW32674   2.273   3.790   7.262 -0.3257  0.0550  0.0155
10227SOL    HW132675   2.239   3.844   7.333  0.1186  0.7276 -0.2699
10227SOL    HW232676   2.358   3.759   7.295  0.3821  1.2495 -0.6202
10228SOL     OW32677   6.476   0.676   8.582 -0.6092 -0.5820 -0.4383
10228SOL    HW132678   6.383   0.650   8.581 -0.4754 -1.0756 -0.3077
10228SOL    HW232679   6.494   0.698   8.673 -0.7383  0.0472 -0.5595
10229SOL     OW32680   2.654   1.278   5.823  0.1015  0.2320 -0.6345
10229SOL    HW132681   2.577   1.223   5.812  0.2134 -0.1003  0.1708
10229SOL    HW232682   2.628   1.363   5.788 -0.0186 -0.3557 -2.0501
10230SOL     OW32683   6.548   0.005   5.097  0.3910  0.1404 -0.3781
10230SOL    HW132684   6.587  -0.078   5.070 -0.4593 -0.3740 -0.0439
10230SOL    HW232685   6.466  -0.019   5.139 -0.4807  1.2225 -1.4061
10231SOL     OW32686   7.300   3.186   5.284  0.4632 -0.1567  0.7957
10231SOL    HW132687   7.212   3.212   5.312 -0.3650 -0.2038 -1.5724
10231SOL    HW232688   7.297   3.090   5.282 -0.6135 -0.1534 -2.5014
10232SOL     OW32689   5.626   2.110   7.941 -0.0380 -0.7369  0.1381
10232SOL    HW132690   5.682   2.187   7.930 -0.0479 -0.7182  0.2236
10232SOL    HW232691   5.651   2.074   8.026 -0.3531 -0.5669  0.3054
10233SOL     OW32692   2.743   7.194   2.050  0.1088 -0.1720  0.2250
10233SOL    HW132693   2.783   7.264   2.101 -1.5070  1.1255 -0.2101
10233SOL    HW232694   2.673   7.161   2.105 -0.9152  0.4667 -0.6486
10234SOL     OW32695   4.479   0.768   5.786  0.0882 -0.1857 -0.1786
10234SOL    HW132696   4.417   0.830   5.748 -1.1185 -1.0790  0.2705
10234SOL    HW232697   4.514   0.814   5.863 -3.4097 -1.1832  2.2643
10235SOL     OW32698   3.631   3.918   3.314 -0.0769 -0.0332  0.1412
10235SOL    HW132699   3.696   3.853   3.289  1.5702  1.6418 -0.0807
10235SOL    HW232700   3.580   3.934   3.234 -1.0496 -1.5879  0.4027
10236SOL     OW32701   5.556   1.432   5.436  0.1676 -0.3639  0.6820
10236SOL    HW132702   5.507   1.357   5.468  1.1784 -1.0441  0.6728
10236SOL    HW232703   5.635   1.395   5.397 -0.0255  0.6003 -0.6952
10237SOL     OW32704   1.407   3.172   1.393 -0.0738 -0.0856  0.0684
10237SOL    HW132705   1.360   3.195   1.473 -2.4446 -0.6321 -1.0776
10237SOL    HW232706   1.354   3.103   1.353  1.0550  0.1629 -1.9794
10238SOL     OW32707   4.721   8.627   2.934 -0.3536 -0.0178 -0.5115
10238SOL    HW132708   4.814   8.606   2.932 -0.5375 -0.9515 -0.0677
10238SOL    HW232709   4.700   8.635   3.027 -1.1296 -1.9006 -0.4759
10239SOL     OW32710   2.679   7.571   6.102 -0.0163  0.3618 -0.1057
10239SOL    HW132711   2.644   7.642   6.155  0.3852  0.4981 -0.0138
10239SOL    HW232712   2.603   7.517   6.080 -0.0706 -0.2755  1.4884
10240SOL     OW32713   8.091   5.376   0.469  0.0955  0.0677 -0.0601
10240SOL    HW132714   8.026   5.321   0.513 -2.1983  2.8489  0.3468
10240SOL    HW232715   8.155   5.397   0.537 -1.7019  1.7881  1.1913
10241SOL     OW32716   2.125   7.420   8.490  0.2159 -0.4136 -0.5825
10241SOL    HW132717   2.210   7.380   8.471  0.1429 -0.8236 -0.0826
10241SOL    HW232718   2.144   7.484   8.559  0.2815  0.2122 -1.1704
10242SOL     OW32719   6.414   8.080   0.332  0.1689  0.0446 -0.7233
10242SOL    HW132720   6.391   8.000   0.379 -1.9421  0.2865 -1.2546
10242SOL    HW232721   6.336   8.102   0.281  1.3740  1.3825 -2.1085
10243SOL     OW32722   4.935   2.243   2.905  0.2521 -0.0640  0.6870
10243SOL    HW132723   4.903   2.211   2.822  1.6771  1.3071 -0.4633
10243SOL    HW232724   5.008   2.185   2.927 -1.1160 -1.4270  1.8626
10244SOL     OW32725   3.341   2.115   0.848 -0.1300  0.2826  0.0498
10244SOL    HW132726   3.308   2.053   0.783  0.0284 -1.1889  1.3130
10244SOL    HW232727   3.374   2.189   0.797 -2.8621  0.6247 -1.3889
10245SOL     OW32728   6.908   4.035   3.713 -0.0944 -0.2361 -0.3861
10245SOL    HW132729   6.929   3.967   3.649 -2.5421 -1.2444 -0.2475
10245SOL    HW232730   6.942   4.002   3.796 -2.7494 -2.2815  0.0251
10246SOL     OW32731   1.851   4.682   0.843  0.1150 -0.7931 -0.7226
10246SOL    HW132732   1.836   4.620   0.915 -0.1154 -0.3884 -0.4148
10246SOL    HW232733   1.783   4.661   0.779 -1.5553  0.6971  0.4409
10247SOL     OW32734   5.745   8.697   5.452  0.3655 -0.1053  0.1916
10247SOL    HW132735   5.708   8.738   5.530  0.5101 -3.2330  2.0549
10247SOL    HW232736   5.670   8.659   5.407  0.4983  0.1343 -0.2422
10248SOL     OW32737   6.845   1.456   5.023 -0.1255  0.4847 -0.5677
10248SOL    HW132738   6.787   1.407   4.966 -1.1809 -1.4681  1.9959
10248SOL    HW232739   6.787   1.498   5.086  1.0794  0.6997  0.4488
10249SOL     OW32740   5.120   5.916   0.014  0.2033 -0.3411 -0.1954
10249SOL    HW132741   5.134   6.007   0.040  0.6708 -0.6637  0.7244
10249SOL    HW232742   5.178   5.865   0.071 -0.0833 -1.2232 -0.6665
10250SOL     OW32743   5.045   1.209   8.410 -0.0168  0.6040 -0.3207
10250SOL    HW132744   5.100   1.163   8.348  2.4387 -0.4821  2.4213
10250SOL    HW232745   4.987   1.141   8.446  0.8390  0.4686  0.8556
10251SOL     OW32746   5.743   4.850   8.050  0.6445  0.3140  0.0835
10251SOL    HW132747   5.740   4.779   8.115 -1.5867  0.2702  0.0034
10251SOL    HW232748   5.668   4.905   8.071  0.7583  1.1499 -1.5382
10252SOL     OW32749   1.829   7.296   7.619 -0.0441 -0.2779  0.5271
10252SOL    HW132750   1.772   7.345   7.560 -0.5000  0.5386  1.6181
10252SOL    HW232751   1.891   7.360   7.652 -0.2212 -0.5740  1.4563
10253SOL     OW32752   0.839   4.829   5.823 -0.0968  0.3151  1.1232
10253SOL    HW132753   0.825   4.902   5.762  2.0399  0.9136  1.2698
10253SOL    HW232754   0.818   4.751   5.772 -0.0353  0.8939  0.1843
10254SOL     OW32755   4.340   4.684   4.322  0.0926 -0.3254  0.0237
10254SOL    HW132756   4.269   4.656   4.379  0.4949  0.1381  0.7704
10254SOL    HW232757   4.385   4.752   4.371  1.3888 -0.9893 -0.1811
10255SOL     OW32758   2.600   6.870   5.059 -0.1171  0.1807  0.2914
10255SOL    HW132759   2.529   6.808   5.045 -1.2023  0.9660  1.8568
10255SOL    HW232760   2.673   6.817   5.091  0.6192 -0.8570 -2.8442
10256SOL     OW32761   3.482   2.946   7.191  0.2834  0.0058 -0.3827
10256SOL    HW132762   3.402   2.956   7.140 -0.8421  0.8758  1.4294
10256SOL    HW232763   3.478   3.018   7.255  0.8419 -1.8449  1.8647
10257SOL     OW32764   3.724   4.832   3.246 -0.3778 -0.4387  0.1938
10257SOL    HW132765   3.700   4.762   3.306  0.3962 -0.5433  0.3893
10257SOL    HW232766   3.769   4.787   3.174 -0.1327 -0.1738  0.1822
10258SOL     OW32767   0.465   4.350   4.552  0.0373  0.1252 -0.0908
10258SOL    HW132768   0.460   4.255   4.567 -1.0890  0.3049  0.8383
10258SOL    HW232769   0.528   4.381   4.617  1.4892 -0.1296 -1.3141
10259SOL     OW32770   0.948   2.851   8.112  0.0574  0.1873 -0.0920
10259SOL    HW132771   0.953   2.946   8.099 -1.7749  0.3187 -0.0935
10259SOL    HW232772   0.922   2.816   8.027 -0.2754 -0.2055  0.1688
10260SOL     OW32773   0.087   8.224   6.599 -0.6545  0.7301  0.2645
10260SOL    HW132774   0.140   8.276   6.539 -0.2312  0.4247  0.3685
10260SOL    HW232775  -0.001   8.225   6.560 -0.4028  0.5971 -0.3168
10261SOL     OW32776   8.251   7.010   7.360  0.0758  0.7852 -0.1091
10261SOL    HW132777   8.160   6.980   7.354  0.0787  0.9550 -1.0157
10261SOL    HW232778   8.243   7.104   7.376  0.0926  0.7161  0.3198
10262SOL     OW32779   4.181   6.590   0.426  0.3522  0.1566 -0.2437
10262SOL    HW132780   4.141   6.586   0.339  0.4381  0.4917 -0.3003
10262SOL    HW232781   4.265   6.634   0.411 -0.5274  2.1277  0.3264
10263SOL     OW32782   6.959   1.892   7.800 -0.3411  0.6039  0.0378
10263SOL    HW132783   7.009   1.936   7.731  2.5116 -0.6498  1.1576
10263SOL    HW232784   6.947   1.959   7.867  2.2008  0.3440  0.8578
10264SOL     OW32785   5.371   7.810   8.854 -0.1966  0.3820  0.4326
10264SOL    HW132786   5.393   7.903   8.864  0.3063  0.3189  0.0152
10264SOL    HW232787   5.456   7.767   8.848 -0.4318 -0.0478  0.1490
10265SOL     OW32788   0.538   0.502   8.787 -0.5159  0.3455  0.3406
10265SOL    HW132789   0.452   0.543   8.776  0.3367  1.7844 -1.3305
10265SOL    HW232790   0.526   0.413   8.756 -1.4432  0.4751  0.2832
10266SOL     OW32791   8.169   4.458   4.797  0.2684 -0.3517  0.3459
10266SOL    HW132792   8.104   4.469   4.867  1.4357 -2.9302  1.9558
10266SOL    HW232793   8.188   4.365   4.796  0.0044 -0.5481 -3.8046
10267SOL     OW32794   0.664   1.844   0.926 -0.5254 -0.0424 -0.1680
10267SOL    HW132795   0.642   1.754   0.949  1.3144 -0.3914  0.3872
10267SOL    HW232796   0.581   1.882   0.895 -1.2511 -2.0124 -0.7909
10268SOL     OW32797   2.272   0.341   2.204 -0.1543  0.1239  0.2270
10268SOL    HW132798   2.240   0.418   2.250 -0.9961 -0.5210  0.7658
10268SOL    HW232799   2.193   0.295   2.175  0.3478  0.0499 -1.1000
10269SOL     OW32800   1.293   5.009   1.808  0.4419  0.0930  0.0272
10269SOL    HW132801   1.331   4.952   1.741 -0.1155  0.0056 -0.2217
10269SOL    HW232802   1.266   4.949   1.878  2.6066  0.3271  1.1470
10270SOL     OW32803   1.469   3.372   8.818  0.0988  1.0216 -0.4047
10270SOL    HW132804   1.546   3.392   8.764  1.3345  1.9569  1.6007
10270SOL    HW232805   1.407   3.442   8.796 -0.7753 -0.3979 -2.9199
10271SOL     OW32806   6.225   7.027   6.908  0.6265  0.1048 -0.1313
10271SOL    HW132807   6.161   7.072   6.963 -1.7160  0.8125 -3.1446
10271SOL    HW232808   6.295   7.091   6.895 -1.0780  1.7532 -1.6873
10272SOL     OW32809   7.411   2.682   6.218 -0.4414  0.3460 -0.5141
10272SOL    HW132810   7.379   2.592   6.209  2.1432 -0.6003 -0.9431
10272SOL    HW232811   7.459   2.682   6.301 -1.7392  1.8316  0.3082
10273SOL     OW32812   3.659   7.225   8.004 -0.0893 -0.0176 -0.4779
10273SOL    HW132813   3.675   7.170   8.081 -0.7597  0.7019  0.1865
10273SOL    HW232814   3.667   7.165   7.930 -0.2472 -0.8947  0.1962
10274SOL     OW32815   4.589   7.820   4.274  0.3958 -0.4575 -0.0138
10274SOL    HW132816   4.647   7.798   4.347  0.5435 -2.5780 -0.6845
10274SOL    HW232817   4.501   7.823   4.313  0.7075  0.6121  0.6231
10275SOL     OW32818   8.861   5.082   7.464 -1.0306  0.4019 -0.0752
10275SOL    HW132819   8.908   5.066   7.546 -0.1142 -0.6120 -0.7761
10275SOL    HW232820   8.776   5.038   7.477 -0.9664  0.4075  0.3977
10276SOL     OW32821   5.466   0.734   3.179  0.4831  0.3205  0.8350
10276SOL    HW132822   5.534   0.723   3.112 -1.1898  0.5332 -0.9919
10276SOL    HW232823   5.411   0.657   3.170 -1.2231  1.5498  0.1404
10277SOL     OW32824   4.128   6.594   4.774  0.1695 -0.1519 -0.2435
10277SOL    HW132825   4.141   6.648   4.852  0.0062 -1.3691  0.6492
10277SOL    HW232826   4.155   6.651   4.702  1.8041  0.4936  0.8064
10278SOL     OW32827   3.937   5.667   0.736  0.5471  0.1739 -0.2270
10278SOL    HW132828   3.861   5.661   0.794  0.1423 -0.1111 -0.7861
10278SOL    HW232829   3.901   5.685   0.650  1.0454 -0.9385 -0.6801
10279SOL     OW32830   8.557   2.445   3.223  0.1591  0.3608  0.4138
10279SOL    HW132831   8.615   2.443   3.299  0.2169 -0.2599  0.3630
10279SOL    HW232832   8.510   2.361   3.227 -0.4408  0.6831  0.2308
10280SOL     OW32833   7.465   5.066   6.846 -0.4149 -0.5339  0.2024
10280SOL    HW132834   7.478   5.156   6.876  1.7706 -0.8481  0.3433
10280SOL    HW232835   7.550   5.040   6.810 -1.5308 -1.9050 -1.6172
10281SOL     OW32836   8.073   6.803   1.405  0.2691  0.7538  0.7360
10281SOL    HW132837   8.116   6.719   1.396  1.3278  1.4244 -0.8419
10281SOL    HW232838   8.095   6.832   1.494  2.3071  0.6301  0.3112
10282SOL     OW32839   5.988   7.894   0.899  0.5447 -0.2157  0.4511
10282SOL    HW132840   6.053   7.908   0.967  0.8353  2.1927 -0.2395
10282SOL    HW232841   5.930   7.826   0.934  1.3698  0.1134  2.5599
10283SOL     OW32842   8.567   3.480   5.054 -0.0123 -0.5944  0.1224
10283SOL    HW132843   8.547   3.420   4.982  1.1109 -1.2269  0.3131
10283SOL    HW232844   8.637   3.536   5.019 -0.1448 -0.2557  0.3946
10284SOL     OW32845   8.843   4.411   8.165  0.1866  0.3261 -0.6810
10284SOL    HW132846   8.918   4.410   8.106  1.1424  2.2528  0.4034
10284SOL    HW232847   8.882   4.424   8.252 -1.2238 -1.6207  0.3169
10285SOL     OW32848   8.377   6.117   4.131  0.5054 -0.1291 -0.5680
10285SOL    HW132849   8.422   6.064   4.197  1.8241  0.8129 -0.6715
10285SOL    HW232850   8.287   6.085   4.132  0.6395 -0.5616  1.2525
10286SOL     OW32851   7.092   7.054   6.218  0.6592 -0.1425  0.2146
10286SOL    HW132852   7.111   6.986   6.154 -0.2271 -1.0689  0.9022
10286SOL    HW232853   7.019   7.102   6.181  0.6592 -0.1745  0.1730
10287SOL     OW32854   6.135   5.718   6.792 -0.1914 -0.1111  0.1997
10287SOL    HW132855   6.083   5.671   6.857  1.5156 -0.6291  1.2725
10287SOL    HW232856   6.148   5.805   6.829  0.1384 -0.1589  0.2054
10288SOL     OW32857   5.290   7.930   7.223 -0.5328 -0.1870 -0.0674
10288SOL    HW132858   5.203   7.956   7.255 -0.1941  3.0007 -1.3558
10288SOL    HW232859   5.345   7.929   7.301 -1.2917 -0.1217  0.4795
10289SOL     OW32860   1.141   4.436   2.562 -0.2635 -0.4653  0.1209
10289SOL    HW132861   1.195   4.433   2.483  0.7277 -0.4001  0.7854
10289SOL    HW232862   1.150   4.526   2.593  1.2128 -1.0695  1.5642
10290SOL     OW32863   4.673   2.125   3.167  0.5482 -0.1462 -0.0239
10290SOL    HW132864   4.731   2.055   3.136  2.0533  0.8330  0.4601
10290SOL    HW232865   4.603   2.129   3.101  0.5498 -1.9131 -0.1861
10291SOL     OW32866   7.786   1.037   1.753 -0.1186 -0.3455 -0.1498
10291SOL    HW132867   7.866   1.047   1.702  0.4298 -0.6547  0.6422
10291SOL    HW232868   7.804   0.965   1.813 -1.2579 -0.9147 -0.4671
10292SOL     OW32869   5.056   0.102   8.722 -0.4389  0.2368 -0.2870
10292SOL    HW132870   5.005   0.135   8.796  0.1136  1.0087 -0.2388
10292SOL    HW232871   5.000   0.115   8.646 -0.9789 -0.4886 -0.0183
10293SOL     OW32872   5.354   5.642   5.970 -0.7578 -0.6823 -0.1482
10293SOL    HW132873   5.447   5.627   5.957 -0.6236 -2.1870  2.1094
10293SOL    HW232874   5.332   5.593   6.048 -2.8643  1.9316  1.0728
10294SOL     OW32875   1.586   8.257   6.966 -0.1899  0.1979  0.1410
10294SOL    HW132876   1.588   8.290   6.876  0.3682  0.7408  0.3391
10294SOL    HW232877   1.498   8.221   6.977 -1.5575  3.2823  0.4649
10295SOL     OW32878   4.749   1.601   0.448  0.3586  0.1600  0.4369
10295SOL    HW132879   4.805   1.641   0.382  1.0167 -1.1903  0.1354
10295SOL    HW232880   4.678   1.664   0.461  1.2339  1.2961 -0.1575
10296SOL     OW32881   2.812   1.073   3.250 -0.1698  0.1716 -0.4279
10296SOL    HW132882   2.811   1.032   3.163 -0.2514 -0.0321 -0.3325
10296SOL    HW232883   2.720   1.088   3.271 -0.1073  1.0100 -0.7404
10297SOL     OW32884   5.994   5.607   7.008 -0.4256 -0.0083  0.5878
10297SOL    HW132885   6.049   5.626   7.084 -0.4846 -0.8164  0.8404
10297SOL    HW232886   5.981   5.512   7.011 -1.7895  0.1630  0.4999
10298SOL     OW32887   0.717   2.419   8.563 -0.0459 -0.3456 -0.5440
10298SOL    HW132888   0.688   2.337   8.602  0.8301 -0.8102 -0.8669
10298SOL    HW232889   0.719   2.403   8.469  0.5110 -0.0771 -0.5817
10299SOL     OW32890   6.946   1.668   7.951  0.0581  0.0004 -0.0136
10299SOL    HW132891   6.943   1.757   7.916 -0.5138 -0.2793 -0.6983
10299SOL    HW232892   7.017   1.625   7.902 -1.3433 -0.6649 -1.5472
10300SOL     OW32893   6.517   0.074   0.066 -0.3152 -0.2472  0.2325
10300SOL    HW132894   6.468  -0.007   0.082  0.9857 -1.1067  0.0369
10300SOL    HW232895   6.495   0.130   0.141 -2.1073 -0.3182 -0.2019
10301SOL     OW32896   2.173   8.782   1.709  0.1492 -0.4622 -0.3433
10301SOL    HW132897   2.144   8.776   1.618  1.4212  0.0965 -0.7978
10301SOL    HW232898   2.224   8.863   1.714 -1.7499  0.7552  1.4176
10302SOL     OW32899   2.022   5.703   6.405  0.7056  0.0996 -0.1312
10302SOL    HW132900   2.065   5.683   6.488  1.1252 -0.1002 -0.3938
10302SOL    HW232901   1.997   5.795   6.412 -2.5231 -0.7559  1.6826
10303SOL     OW32902   7.368   3.147   5.925 -0.2679  0.1017  0.4960
10303SOL    HW132903   7.328   3.062   5.941 -2.5088  0.7724 -1.0470
10303SOL    HW232904   7.368   3.190   6.011 -0.2729 -0.9744  1.0489
10304SOL     OW32905   1.201   1.516   2.550  0.2081  0.8640 -0.1553
10304SOL    HW132906   1.198   1.576   2.475  2.7542  1.2725 -0.0302
10304SOL    HW232907   1.224   1.572   2.624 -1.1062  0.2689  0.7433
10305SOL     OW32908   0.871   2.374   2.761 -0.4247  0.2700  0.2858
10305SOL    HW132909   0.778   2.395   2.759 -0.4306  0.1954 -0.2819
10305SOL    HW232910   0.911   2.448   2.805 -0.7748  0.2145  0.7044
10306SOL     OW32911   4.584   7.837   7.887 -0.0698 -0.0177  0.1719
10306SOL    HW132912   4.553   7.782   7.816 -1.2484  0.8437 -0.0043
10306SOL    HW232913   4.510   7.894   7.908  0.4820  0.2121  1.6288
10307SOL     OW32914   7.935   2.045   4.025  0.0242 -0.4851  0.3712
10307SOL    HW132915   7.900   2.134   4.020  0.3013 -0.3226  1.1809
10307SOL    HW232916   7.904   2.002   3.945  0.5572  0.5783 -0.4332
10308SOL     OW32917   5.634   4.301   5.634  0.6339 -0.4585 -0.0861
10308SOL    HW132918   5.628   4.346   5.718 -0.1866 -1.5334  0.4545
10308SOL    HW232919   5.570   4.230   5.640 -0.1952  0.0791 -2.0312
10309SOL     OW32920   6.581   4.360   8.539 -0.7574 -0.2765  0.3816
10309SOL    HW132921   6.586   4.449   8.572 -1.7153  0.9621 -2.4724
10309SOL    HW232922   6.641   4.358   8.465  0.0484 -2.3642  1.0264
10310SOL     OW32923   8.594   6.098   7.329 -0.0926  0.0461 -0.8859
10310SOL    HW132924   8.668   6.131   7.277  0.0967  3.0632  1.0631
10310SOL    HW232925   8.517   6.115   7.274  0.3432  0.2841 -1.4393
10311SOL     OW32926   3.997   1.288   0.336  0.0793  0.0984 -0.1647
10311SOL    HW132927   4.062   1.277   0.405 -0.5143  1.0754  0.5792
10311SOL    HW232928   4.035   1.246   0.259  1.8720  1.2509  0.0609
10312SOL     OW32929   6.646   8.582   6.227  0.0982 -0.1385 -0.4071
10312SOL    HW132930   6.566   8.627   6.200 -0.4510 -1.0836 -0.3838
10312SOL    HW232931   6.639   8.575   6.322 -0.2693 -1.0893 -0.4935
10313SOL     OW32932   3.891   5.702   5.072  0.0117  0.3234 -0.3100
10313SOL    HW132933   3.876   5.639   5.142 -0.0856 -0.8304 -1.3393
10313SOL    HW232934   3.910   5.784   5.118 -1.6776  0.0141  1.0560
10314SOL     OW32935   3.943   0.393   6.588  0.7344 -0.2670  0.7477
10314SOL    HW132936   3.935   0.356   6.676 -4.2055 -0.6246  0.4350
10314SOL    HW232937   3.960   0.486   6.603  4.1131 -0.9081  1.7726
10315SOL     OW32938   6.120   1.815   0.184 -0.1564  0.1764  0.2649
10315SOL    HW132939   6.058   1.769   0.127 -0.2667 -1.0416  1.3359
10315SOL    HW232940   6.166   1.745   0.230  3.0296  0.9549 -1.4491
10316SOL     OW32941   3.434   2.077   3.090  0.2962 -0.0562  0.0938
10316SOL    HW132942   3.474   1.997   3.125  3.1816  1.1751 -0.0931
10316SOL    HW232943   3.500   2.113   3.032 -1.0268  2.3386 -0.0400
10317SOL     OW32944   7.993   1.485   6.720 -0.1688  0.5163  0.0425
10317SOL    HW132945   7.987   1.393   6.746 -2.2273 -0.0704 -2.1718
10317SOL    HW232946   7.970   1.533   6.799 -0.0187 -0.8896  0.9864
10318SOL     OW32947   6.967   1.886   3.694  0.1525  0.0874  0.0027
10318SOL    HW132948   6.987   1.979   3.704  0.1952 -0.1231  2.5567
10318SOL    HW232949   6.874   1.879   3.715  0.5376 -0.6267  1.6199
10319SOL     OW32950   2.826   2.103   1.509  0.2127 -0.1023 -0.9173
10319SOL    HW132951   2.737   2.086   1.542 -0.2571  1.7632 -1.1146
10319SOL    HW232952   2.853   2.020   1.470 -1.2534 -0.8514 -0.4303
10320SOL     OW32953   7.078   1.778   7.114  0.0668  0.2008  0.2640
10320SOL    HW132954   7.144   1.767   7.046 -0.7278 -1.2570 -0.3224
10320SOL    HW232955   6.996   1.789   7.066 -0.2976  0.6758  0.9789
10321SOL     OW32956   3.710   4.460   7.609  0.1514 -0.0616  0.2757
10321SOL    HW132957   3.745   4.446   7.521  0.0834  2.2833 -0.1902
10321SOL    HW232958   3.759   4.536   7.642 -1.3615  0.4919  1.3695
10322SOL     OW32959   3.740   6.904   4.613  0.3641  0.3004 -0.0122
10322SOL    HW132960   3.831   6.887   4.586  0.4355  2.0359 -0.9910
10322SOL    HW232961   3.731   6.999   4.610 -1.5879  0.1515 -0.2532
10323SOL     OW32962   2.085   7.819   3.154 -0.5084  0.7243 -0.4151
10323SOL    HW132963   2.018   7.815   3.222 -1.9281  0.2152 -1.7568
10323SOL    HW232964   2.036   7.810   3.072  1.2814 -0.4837 -1.4437
10324SOL     OW32965   1.032   1.347   5.354  0.8977  0.5459 -0.2049
10324SOL    HW132966   0.976   1.277   5.321 -1.9240  2.2444  0.6226
10324SOL    HW232967   0.971   1.410   5.393  3.4036  2.7179  0.4917
10325SOL     OW32968   0.386   3.323   7.839  0.1558  0.2804 -0.3836
10325SOL    HW132969   0.329   3.377   7.894  0.0214 -0.3312  0.0870
10325SOL    HW232970   0.429   3.386   7.780 -0.2365  0.8602 -0.0616
10326SOL     OW32971   6.643   7.755   7.464  0.4147  0.2304  0.2254
10326SOL    HW132972   6.698   7.832   7.446 -1.3792  1.3092 -0.9649
10326SOL    HW232973   6.556   7.792   7.482 -0.5000 -1.5373 -0.4095
10327SOL     OW32974   3.440   4.449   3.241  0.4577  0.0586 -0.4107
10327SOL    HW132975   3.369   4.491   3.191  0.6042  1.0476  0.1863
10327SOL    HW232976   3.401   4.367   3.272 -0.9203  1.2029  1.0612
10328SOL     OW32977   6.075   1.529   3.717  0.2649  0.6349 -0.0163
10328SOL    HW132978   6.118   1.590   3.777  1.1326  0.5792 -0.5808
10328SOL    HW232979   6.084   1.443   3.760 -1.1830  0.9057  0.9047
10329SOL     OW32980   3.373   8.510   2.282 -0.1555 -0.1655 -0.7388
10329SOL    HW132981   3.468   8.515   2.273 -0.2465  1.5742 -0.9123
10329SOL    HW232982   3.358   8.522   2.376 -0.3081  2.3793 -1.0204
10330SOL     OW32983   7.096   2.979   3.688 -0.8348 -0.1578 -0.6433
10330SOL    HW132984   7.137   2.951   3.769 -1.2315 -1.3727 -0.8451
10330SOL    HW232985   7.092   3.075   3.695 -4.4739 -0.2766  2.6284
10331SOL     OW32986   1.922   8.787   4.358 -0.2087  0.5502  0.1035
10331SOL    HW132987   1.983   8.738   4.412  0.5565  1.7853  0.4014
10331SOL    HW232988   1.975   8.819   4.285 -0.1753  2.6294  0.9750
10332SOL     OW32989   1.846   5.847   6.784  0.7292 -0.2196  0.5974
10332SOL    HW132990   1.930   5.880   6.816  0.0968  1.2345  0.8474
10332SOL    HW232991   1.864   5.757   6.758  2.1917 -0.1741  1.3290
10333SOL     OW32992   6.000   0.385   0.950  0.0292 -0.1390 -0.9062
10333SOL    HW132993   5.957   0.346   1.026 -3.0092  3.3173 -0.6035
10333SOL    HW232994   6.078   0.427   0.985 -1.0957  1.0239  0.2864
10334SOL     OW32995   5.679   1.533   1.403 -0.1080 -0.1357  0.4933
10334SOL    HW132996   5.768   1.542   1.437  0.9698  0.4100 -2.2297
10334SOL    HW232997   5.629   1.600   1.450  0.9372 -0.2977  1.9197
10335SOL     OW32998   2.189   5.614   6.644  0.4047 -0.4884  0.0050
10335SOL    HW132999   2.203   5.642   6.734  0.5058  0.4420 -0.2887
10335SOL    HW233000   2.114   5.554   6.649 -0.6248  0.8024  0.4976
10336SOL     OW33001   0.018   4.977   2.665 -0.5314 -0.3167 -0.0402
10336SOL    HW133002   0.021   4.952   2.757 -2.0019 -0.9485 -0.1257
10336SOL    HW233003  -0.066   5.022   2.655  0.2024  0.9275 -0.8095
10337SOL     OW33004   6.631   0.835   2.176 -0.3951 -0.2764  0.1883
10337SOL    HW133005   6.643   0.752   2.129 -0.9921  0.3636 -1.1294
10337SOL    HW233006   6.692   0.829   2.250  2.3905 -0.3497 -1.9505
10338SOL     OW33007   5.968   1.329   1.934 -0.0085  0.4278  1.1385
10338SOL    HW133008   5.900   1.262   1.922  1.4648 -0.8616 -0.4480
10338SOL    HW233009   6.010   1.306   2.017  1.0124 -1.1837  0.2328
10339SOL     OW33010   0.291   3.858   1.554 -0.0804 -0.0241  0.1483
10339SOL    HW133011   0.346   3.837   1.629  1.2741  1.2743 -0.3999
10339SOL    HW233012   0.224   3.791   1.552 -0.5035  0.2364  2.8471
10340SOL     OW33013   8.220   0.027   2.685 -0.2144 -0.2759  0.4652
10340SOL    HW133014   8.234  -0.066   2.705  1.4679  0.1614  1.5736
10340SOL    HW233015   8.140   0.050   2.733  0.5166 -0.6750  1.9385
10341SOL     OW33016   3.752   3.285   3.878  0.0819 -0.0043  0.4420
10341SOL    HW133017   3.744   3.337   3.798 -0.7344 -0.4388  0.2229
10341SOL    HW233018   3.694   3.328   3.940 -2.2354 -1.7515 -0.3658
10342SOL     OW33019   5.375   6.503   1.371  0.1888 -0.2488 -0.6253
10342SOL    HW133020   5.418   6.552   1.442  0.1883  0.1648 -0.9048
10342SOL    HW233021   5.387   6.558   1.294  1.1677 -1.2288 -1.1914
10343SOL     OW33022   1.742   6.536   5.202 -0.2624  0.1908 -0.2114
10343SOL    HW133023   1.782   6.459   5.162 -1.0158  0.1561 -0.9300
10343SOL    HW233024   1.792   6.551   5.282 -0.3597 -1.2823  0.1417
10344SOL     OW33025   7.968   3.457   6.511  0.2127  0.1734  0.1198
10344SOL    HW133026   7.879   3.493   6.506 -0.1506 -0.6389  0.5361
10344SOL    HW233027   7.959   3.367   6.479  0.7027 -0.2241  1.0747
10345SOL     OW33028   7.409   2.799   8.522  0.0917 -0.3070  0.2043
10345SOL    HW133029   7.461   2.876   8.499 -0.7339  1.2862  3.2421
10345SOL    HW233030   7.319   2.832   8.528 -0.4883 -1.8222  0.3002
10346SOL     OW33031   6.214   3.169   2.311 -0.3587 -0.0871 -0.8662
10346SOL    HW133032   6.135   3.193   2.261 -0.3526  0.8000 -0.4776
10346SOL    HW233033   6.198   3.080   2.341 -1.2160  0.0822 -0.7955
10347SOL     OW33034   1.540   3.716   7.499 -0.0188  0.3170 -0.3422
10347SOL    HW133035   1.474   3.773   7.540  0.2168 -0.5525  1.3169
10347SOL    HW233036   1.509   3.627   7.516  0.8834 -0.0851 -0.7404
10348SOL     OW33037   5.576   5.692   8.855 -0.0912  0.4892  0.0053
10348SOL    HW133038   5.671   5.697   8.841  0.2971 -0.0550  2.1729
10348SOL    HW233039   5.549   5.783   8.869 -0.1572  0.8065 -1.9287
10349SOL     OW33040   0.743   4.376   3.606 -0.6837 -0.4346 -0.4767
10349SOL    HW133041   0.814   4.421   3.560  1.0153 -0.5893  1.8490
10349SOL    HW233042   0.757   4.283   3.588 -0.1872 -0.4779  0.1480
10350SOL     OW33043   5.536   0.537   4.142  0.0090 -0.1829 -0.1414
10350SOL    HW133044   5.615   0.500   4.180 -0.9818  0.1421  2.4438
10350SOL    HW233045   5.558   0.629   4.126  0.0130  0.0462  1.0996
10351SOL     OW33046   1.303   4.597   0.025  0.4843  0.4333 -0.0834
10351SOL    HW133047   1.380   4.622   0.077  0.9183 -1.7596  0.4361
10351SOL    HW233048   1.230   4.599   0.087  0.6377 -0.1866  0.1250
10352SOL     OW33049   5.763   7.174   6.500 -0.6345 -0.0137 -0.3182
10352SOL    HW133050   5.698   7.241   6.519 -1.7182 -0.4161 -2.3521
10352SOL    HW233051   5.715   7.092   6.506  0.2539 -0.4924  0.4028
10353SOL     OW33052   5.717   7.153   3.546 -0.7674  0.3278  0.4425
10353SOL    HW133053   5.671   7.097   3.609  0.7277 -0.8011  0.5917
10353SOL    HW233054   5.796   7.181   3.592 -0.5772  1.0363 -0.2945
10354SOL     OW33055   5.162   3.179   3.681  0.5417  0.1276  0.1398
10354SOL    HW133056   5.162   3.204   3.773  1.0237  0.1311  0.1398
10354SOL    HW233057   5.069   3.173   3.658  0.4132 -0.8568  0.8807
10355SOL     OW33058   1.346   0.022   4.784  0.4500  0.2442 -0.0093
10355SOL    HW133059   1.302  -0.063   4.788 -0.6440  0.7889  0.0148
10355SOL    HW233060   1.364   0.037   4.691 -1.0090  0.7712 -0.2392
10356SOL     OW33061   4.589   6.373   3.466 -0.1147 -0.3045 -0.2954
10356SOL    HW133062   4.511   6.392   3.518 -0.3458 -1.6102 -0.1241
10356SOL    HW233063   4.657   6.354   3.531 -0.0201 -0.5127 -0.4536
10357SOL     OW33064   2.254   3.961   6.360  0.1765  0.4994 -0.2613
10357SOL    HW133065   2.216   4.034   6.312 -0.1116  0.0177 -0.7855
10357SOL    HW233066   2.298   3.908   6.292 -0.8289 -0.5620 -0.1213
10358SOL     OW33067   1.522   6.765   5.692  0.3604  0.6763 -0.3753
10358SOL    HW133068   1.475   6.682   5.687  0.2060  0.7658 -0.4056
10358SOL    HW233069   1.581   6.764   5.617  0.4205  0.5560 -0.3266
10359SOL     OW33070   1.230   2.271   2.518  0.4098 -0.0056 -0.4501
10359SOL    HW133071   1.136   2.253   2.514  0.4656 -0.2216 -0.8174
10359SOL    HW233072   1.241   2.323   2.598  0.0715 -0.5434 -0.0451
10360SOL     OW33073   2.491   1.019   7.601 -0.1061 -0.4902  0.2800
10360SOL    HW133074   2.402   1.011   7.569 -0.5288  1.2361  0.9279
10360SOL    HW233075   2.509   1.113   7.600  0.8862 -0.6007  2.2494
10361SOL     OW33076   4.334   0.297   4.405  0.1623  0.1504 -0.8688
10361SOL    HW133077   4.321   0.282   4.498  0.4169  0.9498 -0.6969
10361SOL    HW233078   4.426   0.324   4.398 -0.0613  0.8579 -1.2396
10362SOL     OW33079   5.368   2.143   5.261  0.1982 -0.3649 -0.1541
10362SOL    HW133080   5.446   2.166   5.210 -0.0718 -1.0304 -0.8837
10362SOL    HW233081   5.297   2.142   5.197 -0.0556 -1.7293  0.1088
10363SOL     OW33082   4.892   7.361   6.816 -0.0096  0.0123  0.2360
10363SOL    HW133083   4.939   7.371   6.899 -0.4650  0.8116  0.4100
10363SOL    HW233084   4.945   7.299   6.766  0.4241 -0.2623  1.0108
10364SOL     OW33085   8.728   8.807   6.540 -0.2110  0.1327 -0.3307
10364SOL    HW133086   8.660   8.872   6.526 -1.8056 -0.8871  1.9178
10364SOL    HW233087   8.704   8.764   6.623  3.3666 -0.0599  0.8127
10365SOL     OW33088   5.003   7.773   4.552  0.6836  0.5224 -0.1317
10365SOL    HW133089   5.005   7.692   4.502 -1.6750  0.4880 -0.3091
10365SOL    HW233090   5.093   7.787   4.580  1.2679 -1.7834 -0.6700
10366SOL     OW33091   4.546   5.988   1.959  0.6385  0.3578  0.3264
10366SOL    HW133092   4.517   5.914   2.013  1.3049  0.5686  0.9999
10366SOL    HW233093   4.577   5.948   1.878 -1.3000  0.1158 -0.3429
10367SOL     OW33094   8.264   0.825   0.942 -0.1375  0.8288 -0.2326
10367SOL    HW133095   8.172   0.818   0.915  0.0963  3.6822 -2.2364
10367SOL    HW233096   8.311   0.765   0.884 -0.4663  1.4239 -1.1282
10368SOL     OW33097   5.095   6.304   7.796 -0.5269  0.3357  0.2441
10368SOL    HW133098   5.060   6.215   7.788  0.9658 -0.2418 -0.0580
10368SOL    HW233099   5.038   6.357   7.740 -1.3546 -0.4300  0.3308
10369SOL     OW33100   1.738   5.357   5.272  0.4771  0.1771  0.6067
10369SOL    HW133101   1.750   5.388   5.361  1.1073 -1.1743  1.0160
10369SOL    HW233102   1.775   5.426   5.217 -0.7184  1.4359  1.3185
10370SOL     OW33103   0.080   8.521   4.953  0.1991  0.4143 -0.5993
10370SOL    HW133104   0.167   8.556   4.975  0.7820 -2.1922  1.8447
10370SOL    HW233105   0.095   8.469   4.875  1.5455 -2.0261  1.1364
10371SOL     OW33106   7.670   2.667   5.951  0.0799 -0.2512 -0.4267
10371SOL    HW133107   7.595   2.727   5.950 -0.0811 -0.4515 -0.4356
10371SOL    HW233108   7.746   2.724   5.956 -0.0937 -0.0616  0.1083
10372SOL     OW33109   0.176   6.254   7.698 -0.1629  0.2957  0.0544
10372SOL    HW133110   0.090   6.216   7.680 -0.1140  0.6932 -1.1175
10372SOL    HW233111   0.237   6.202   7.645  0.4709 -0.5471  1.5337
10373SOL     OW33112   1.823   1.358   7.105 -0.1938  0.0499 -0.6191
10373SOL    HW133113   1.801   1.413   7.030  1.9705  1.1892 -0.5285
10373SOL    HW233114   1.774   1.397   7.178  0.6494  1.3895 -0.7280
10374SOL     OW33115   3.887   8.142   4.379 -0.2365 -0.0609  0.0070
10374SOL    HW133116   3.959   8.190   4.419 -1.4128  1.4382  0.4506
10374SOL    HW233117   3.850   8.204   4.316 -1.8366 -0.3436  0.6146
10375SOL     OW33118   6.667   2.957   7.931 -0.7833 -0.2923  0.3010
10375SOL    HW133119   6.671   2.882   7.871 -3.4072 -1.9136  1.9201
10375SOL    HW233120   6.731   2.937   7.999 -1.2214 -0.9443  0.5370
10376SOL     OW33121   1.183   1.242   7.125  0.0038 -0.2540 -0.0329
10376SOL    HW133122   1.241   1.270   7.196  0.1417 -1.3807  0.3246
10376SOL    HW233123   1.103   1.293   7.138  0.9245  1.3995 -0.6005
10377SOL     OW33124   6.533   4.150   2.631  0.0454  0.3556 -0.0540
10377SOL    HW133125   6.617   4.185   2.661  0.0695  0.6242 -0.4365
10377SOL    HW233126   6.475   4.158   2.707  0.8044 -1.3732  0.7729
10378SOL     OW33127   4.013   0.278   0.708 -0.5690 -0.3999 -0.2086
10378SOL    HW133128   4.025   0.210   0.773  2.5463 -0.4741 -0.7295
10378SOL    HW233129   4.067   0.251   0.633 -2.7481  0.4671 -2.2490
10379SOL     OW33130   7.662   3.704   6.889 -0.3253 -0.0946 -0.1974
10379SOL    HW133131   7.576   3.722   6.927 -0.1705  0.1227  0.0518
10379SOL    HW233132   7.718   3.682   6.963 -0.1608 -0.2147 -0.3564
10380SOL     OW33133   5.171   3.195   5.060  0.0896 -0.6214  0.5523
10380SOL    HW133134   5.179   3.163   4.970  1.5908 -0.5054  0.6246
10380SOL    HW233135   5.159   3.290   5.050  0.9378 -0.5117  0.4724
10381SOL     OW33136   3.040   1.635   8.529 -0.2800 -0.3696 -0.1413
10381SOL    HW133137   3.091   1.611   8.607 -0.7151 -0.0284  0.2530
10381SOL    HW233138   3.082   1.713   8.495  0.2760 -0.8634 -0.6033
10382SOL     OW33139   2.143   6.076   2.571 -0.1484 -0.7192 -0.1432
10382SOL    HW133140   2.205   6.059   2.642 -1.4165  1.4026  1.5777
10382SOL    HW233141   2.193   6.128   2.507  0.3693 -0.6894  0.2782
10383SOL     OW33142   4.678   3.761   8.788  0.0629 -0.2105 -0.0299
10383SOL    HW133143   4.717   3.847   8.772 -0.3103 -0.0497 -0.0776
10383SOL    HW233144   4.604   3.757   8.728  2.2791 -2.0933 -2.9298
10384SOL     OW33145   0.326   7.098   2.896 -0.2840  0.1472  0.6174
10384SOL    HW133146   0.378   7.036   2.845 -0.9693  0.8288 -1.0059
10384SOL    HW233147   0.358   7.184   2.867 -1.7460  0.5632  0.1485
10385SOL     OW33148   0.381   0.275   2.764 -0.4852 -0.6287  0.2785
10385SOL    HW133149   0.295   0.303   2.795  0.1558  0.6687  0.9599
10385SOL    HW233150   0.369   0.183   2.740 -1.9395 -0.6034  0.8026
10386SOL     OW33151   7.381   8.535   6.814 -1.0641  0.3469 -0.1196
10386SOL    HW133152   7.307   8.486   6.850  1.0769 -1.1860  2.6882
10386SOL    HW233153   7.444   8.468   6.787  0.7873  1.4825  1.0915
10387SOL     OW33154   7.344   8.628   5.778  0.1296 -0.4669  0.4813
10387SOL    HW133155   7.335   8.625   5.682  0.7630  1.4710  0.3031
10387SOL    HW233156   7.385   8.713   5.795 -1.4371 -0.0327  2.5870
10388SOL     OW33157   5.434   2.661   7.204  0.6604 -0.5336 -0.3195
10388SOL    HW133158   5.468   2.582   7.246  1.3823  0.4000  0.9043
10388SOL    HW233159   5.346   2.671   7.239  0.5405 -0.8177 -0.5304
10389SOL     OW33160   7.565   1.678   0.214  0.7319 -0.2574 -0.6593
10389SOL    HW133161   7.661   1.684   0.215  0.6335  1.8794  0.0178
10389SOL    HW233162   7.535   1.768   0.203 -1.2074 -0.2515  2.9364
10390SOL     OW33163   5.256   1.611   0.607  0.1456 -0.3413  0.3271
10390SOL    HW133164   5.317   1.661   0.662  0.3540  0.5064 -0.6477
10390SOL    HW233165   5.172   1.654   0.621 -0.1441 -1.1849  1.2679
10391SOL     OW33166   4.457   7.366   8.554 -1.0255 -0.2675 -0.5086
10391SOL    HW133167   4.515   7.407   8.619 -0.9920 -1.9052  0.5600
10391SOL    HW233168   4.378   7.344   8.604 -1.6563 -0.0860 -1.4180
10392SOL     OW33169   0.145   5.887   5.050  0.5039  0.6688 -0.2306
10392SOL    HW133170   0.158   5.891   5.145  0.6937  0.3877 -0.2442
10392SOL    HW233171   0.220   5.838   5.017  0.3976  0.6962 -0.5174
10393SOL     OW33172   1.568   7.204   2.098 -0.1736  0.3472 -0.1840
10393SOL    HW133173   1.575   7.164   2.185 -1.9097  0.3345 -0.0214
10393SOL    HW233174   1.611   7.141   2.040  0.0624 -0.1527  0.5135
10394SOL     OW33175   5.853   6.682   5.148 -0.1621 -0.1009 -0.0819
10394SOL    HW133176   5.917   6.628   5.100 -1.3873 -0.4525 -1.4033
10394SOL    HW233177   5.878   6.772   5.127  0.0579 -0.2327 -0.4066
10395SOL     OW33178   6.333   6.103   7.000 -0.4451  0.2321  0.1437
10395SOL    HW133179   6.418   6.127   7.035 -0.2412  0.0525 -0.2271
10395SOL    HW233180   6.351   6.037   6.933 -0.9383 -0.3877  0.6022
10396SOL     OW33181   7.286   1.762   0.343  1.1105 -0.0450 -0.0985
10396SOL    HW133182   7.369   1.754   0.390  1.4310  1.5517 -0.3337
10396SOL    HW233183   7.220   1.772   0.412  1.3999  0.8492  0.0609
10397SOL     OW33184   6.797   2.370   3.854  0.1908 -0.9631  0.8513
10397SOL    HW133185   6.760   2.458   3.845  2.9531  0.2152 -0.0216
10397SOL    HW233186   6.788   2.331   3.768 -0.6464 -1.4131  1.1288
10398SOL     OW33187   5.581   4.266   7.570 -0.4933 -0.5368 -0.4752
10398SOL    HW133188   5.648   4.250   7.636 -0.6181  2.2979  0.5040
10398SOL    HW233189   5.620   4.237   7.488  1.1881 -0.6987  0.3378
10399SOL     OW33190   3.581   6.318   7.214  0.0017 -0.5928 -0.0421
10399SOL    HW133191   3.543   6.376   7.280  0.4937 -1.0978  0.6958
10399SOL    HW233192   3.663   6.360   7.189  0.4945 -1.0944  0.6961
10400SOL     OW33193   1.216   2.395   7.427  0.2607  0.2322 -0.1531
10400SOL    HW133194   1.127   2.360   7.422  0.1040  0.3271  1.5626
10400SOL    HW233195   1.270   2.320   7.452  0.3209  0.6132  0.9166
10401SOL     OW33196   5.821   8.438   8.588  0.6953  0.1145 -0.1751
10401SOL    HW133197   5.803   8.386   8.510 -1.7673  0.5440  0.0187
10401SOL    HW233198   5.813   8.529   8.559 -0.6218  0.2790  0.5913
10402SOL     OW33199   3.170   1.797   7.144  0.2706  0.8978 -0.0484
10402SOL    HW133200   3.165   1.878   7.092 -2.3653 -0.2407 -1.7889
10402SOL    HW233201   3.208   1.733   7.085  0.8465  0.4541  0.7877
10403SOL     OW33202   7.136   1.415   2.387  0.5696  0.4506 -0.2040
10403SOL    HW133203   7.192   1.371   2.451 -1.0116  0.3300  1.1833
10403SOL    HW233204   7.115   1.348   2.322  1.4975  0.3261 -0.3803
10404SOL     OW33205   5.270   3.672   7.001 -0.6100 -0.0263 -0.0660
10404SOL    HW133206   5.309   3.599   6.953  0.0980 -0.4182  1.0760
10404SOL    HW233207   5.290   3.749   6.948  0.2947 -0.4270 -0.3264
10405SOL     OW33208   0.722   4.342   5.579  0.2075 -1.1302 -0.4275
10405SOL    HW133209   0.641   4.292   5.569  0.2391 -1.1336 -0.6810
10405SOL    HW233210   0.774   4.291   5.641 -0.2319 -0.8146  0.2145
10406SOL     OW33211   1.117   5.658   2.136  0.2211  0.3644 -0.0062
10406SOL    HW133212   1.098   5.578   2.087 -2.5614  1.0717 -0.2325
10406SOL    HW233213   1.170   5.711   2.076  0.9157 -0.7068 -0.3761
10407SOL     OW33214   6.093   6.793   8.404  0.0590  0.0187  0.4539
10407SOL    HW133215   6.086   6.888   8.413  1.3725  0.2349 -0.5440
10407SOL    HW233216   6.143   6.766   8.481  0.2840  0.2266  0.3819
10408SOL     OW33217   5.506   8.831   3.157 -0.1115 -0.6374  0.7489
10408SOL    HW133218   5.429   8.787   3.122  0.0075  1.0439 -1.8497
10408SOL    HW233219   5.473   8.911   3.197  0.2487  0.2683 -0.6908
10409SOL     OW33220   8.364   4.378   2.067  0.5589  0.2509  0.7311
10409SOL    HW133221   8.366   4.445   2.134  1.8413 -2.3386  3.5090
10409SOL    HW233222   8.280   4.333   2.080  1.1696 -0.7873  1.2446
10410SOL     OW33223   3.107   2.193   4.684 -0.3724  0.4970 -0.7851
10410SOL    HW133224   3.121   2.166   4.594  0.4535 -2.4430  0.1316
10410SOL    HW233225   3.040   2.133   4.717 -0.5553  1.4170  0.6236
10411SOL     OW33226   1.031   5.676   8.503 -0.2380  0.6035 -0.2236
10411SOL    HW133227   0.993   5.743   8.447 -1.4458  0.4086  0.3200
10411SOL    HW233228   1.040   5.599   8.447 -0.5606  0.6823 -0.3838
10412SOL     OW33229   0.527   3.833   3.633 -0.8451  0.2021 -0.1184
10412SOL    HW133230   0.494   3.787   3.710 -0.0244  0.7076  0.5542
10412SOL    HW233231   0.578   3.906   3.668  3.3849 -2.0223 -0.8985
10413SOL     OW33232   6.268   0.369   3.515 -0.3329  0.2013 -0.1291
10413SOL    HW133233   6.209   0.416   3.456 -1.9018 -0.3993  0.9223
10413SOL    HW233234   6.234   0.386   3.603  2.2514  1.5084  0.7397
10414SOL     OW33235   2.347   2.188   3.956  0.3754 -0.1816 -0.5737
10414SOL    HW133236   2.272   2.139   3.987 -0.0504  0.7088 -0.1567
10414SOL    HW233237   2.422   2.148   4.000  0.5535 -2.8820 -3.0618
10415SOL     OW33238   0.458   6.735   5.400 -0.0868 -0.3177  0.5498
10415SOL    HW133239   0.481   6.673   5.331 -1.2654  1.9525 -2.1160
10415SOL    HW233240   0.512   6.812   5.382  0.9376 -0.2563  3.4099
10416SOL     OW33241   1.415   2.134   5.278 -0.0042  0.5094 -0.6359
10416SOL    HW133242   1.497   2.101   5.313 -0.5528  0.1988  0.3968
10416SOL    HW233243   1.429   2.140   5.183  1.6951  1.8821 -0.3448
10417SOL     OW33244   4.883   1.880   2.882 -0.6959  0.5538  0.0803
10417SOL    HW133245   4.961   1.929   2.909 -0.3779  0.3786 -0.5144
10417SOL    HW233246   4.852   1.839   2.962  0.3940 -0.1831  0.1414
10418SOL     OW33247   7.961   5.511   7.368  0.5398  0.1125  0.5131
10418SOL    HW133248   7.898   5.503   7.439 -1.9094  0.4231 -1.4816
10418SOL    HW233249   7.920   5.571   7.306  2.8303  0.3392 -0.9239
10419SOL     OW33250   2.288   1.956   7.297 -0.0453 -0.0820 -0.3175
10419SOL    HW133251   2.352   1.894   7.332 -1.3396 -1.4920 -0.2984
10419SOL    HW233252   2.224   1.967   7.369  0.5125  1.8638 -0.0594
10420SOL     OW33253   3.235   5.818   6.990 -0.1683 -0.0262  0.7190
10420SOL    HW133254   3.191   5.894   7.028  1.4952  1.0021  0.6617
10420SOL    HW233255   3.296   5.854   6.926 -1.1888 -1.5868 -1.2410
10421SOL     OW33256   0.704   5.375   4.142 -0.1639  0.1904  0.2881
10421SOL    HW133257   0.616   5.391   4.175 -0.4994 -0.0788 -0.4641
10421SOL    HW233258   0.692   5.354   4.049  0.8010  1.4221 -0.1527
10422SOL     OW33259   5.745   4.338   7.199 -0.0688 -0.6935  0.2248
10422SOL    HW133260   5.760   4.297   7.284  1.6664 -1.4415 -0.4000
10422SOL    HW233261   5.707   4.268   7.145 -2.4452  0.1404  0.7020
10423SOL     OW33262   5.052   8.353   0.242 -0.6102 -0.5090  0.0339
10423SOL    HW133263   4.994   8.326   0.170  0.7352  0.8918 -1.6650
10423SOL    HW233264   5.024   8.441   0.264  0.8496  0.2159 -0.8547
10424SOL     OW33265   6.149   6.439   2.933 -0.0014  0.2163 -0.8104
10424SOL    HW133266   6.166   6.531   2.914 -2.5002  0.9462  0.0525
10424SOL    HW233267   6.120   6.402   2.850 -1.9864  1.0466 -0.5354
10425SOL     OW33268   4.718   7.143   7.106 -0.1577  0.3113  0.0562
10425SOL    HW133269   4.694   7.159   7.014 -1.5151 -1.2728  0.0853
10425SOL    HW233270   4.794   7.085   7.101 -0.4826 -0.1103 -0.0854
10426SOL     OW33271   5.706   6.084   2.672 -0.2581  0.3248 -0.2783
10426SOL    HW133272   5.676   5.997   2.646  1.1355 -0.0460 -0.7644
10426SOL    HW233273   5.629   6.139   2.664 -1.5568 -1.1229  1.4733
10427SOL     OW33274   3.587   6.256   7.888 -0.5969 -0.5354  0.1335
10427SOL    HW133275   3.510   6.284   7.938 -0.8232 -1.4819  0.3378
10427SOL    HW233276   3.558   6.255   7.797  0.3755  3.1651 -0.3817
10428SOL     OW33277   8.415   6.084   8.867 -0.3147 -0.0640 -0.0375
10428SOL    HW133278   8.480   6.017   8.845 -0.3129 -0.5391  1.3322
10428SOL    HW233279   8.371   6.050   8.945 -2.8538 -0.1860 -1.4258
10429SOL     OW33280   5.147   0.824   7.823 -0.5335 -0.2304 -0.0586
10429SOL    HW133281   5.064   0.851   7.862 -0.8348 -0.1772 -0.7195
10429SOL    HW233282   5.154   0.730   7.843 -0.6080 -0.1732  0.2429
10430SOL     OW33283   3.558   1.267   7.730 -0.6004  0.0476  0.0394
10430SOL    HW133284   3.478   1.291   7.685 -0.5582 -1.2484 -0.7959
10430SOL    HW233285   3.612   1.345   7.727 -1.2680  0.4987 -0.6751
10431SOL     OW33286   8.840   0.270   7.052  0.6421 -0.4807 -0.1823
10431SOL    HW133287   8.895   0.327   6.998  0.1460 -2.0308 -2.5275
10431SOL    HW233288   8.751   0.301   7.036  0.5676 -0.0969  0.8991
10432SOL     OW33289   3.176   1.590   6.958 -0.2241  0.1466  0.2412
10432SOL    HW133290   3.179   1.504   7.000 -0.7704  0.0819  0.1466
10432SOL    HW233291   3.084   1.616   6.961  0.2681  2.0312  2.9186
10433SOL     OW33292   2.976   0.142   7.950 -0.7282 -0.9253 -0.9334
10433SOL    HW133293   3.014   0.221   7.910 -0.1051 -1.5479 -1.6087
10433SOL    HW233294   2.906   0.175   8.007  1.2617  0.3610  0.9552
10434SOL     OW33295   5.056   5.045   5.060 -0.3221 -0.2576  0.3468
10434SOL    HW133296   5.017   4.986   5.125 -2.6226  0.0018 -0.7181
10434SOL    HW233297   5.146   5.012   5.050 -0.7706 -2.0430  1.5920
10435SOL     OW33298   8.321   1.673   0.309 -0.1226 -0.5119 -0.3667
10435SOL    HW133299   8.287   1.691   0.397  0.1662  0.6569 -0.4728
10435SOL    HW233300   8.282   1.589   0.285 -0.3193 -0.7839  0.8188
10436SOL     OW33301   3.943   2.194   5.584 -0.0841 -0.5867  0.6691
10436SOL    HW133302   3.967   2.283   5.557 -1.2573 -0.1244  1.0975
10436SOL    HW233303   3.967   2.191   5.677 -1.0228 -0.3420  0.9301
10437SOL     OW33304   2.493   0.037   0.465 -0.2650  0.5302  0.4655
10437SOL    HW133305   2.555  -0.015   0.414 -1.9692  0.5525 -1.7782
10437SOL    HW233306   2.540   0.120   0.481  1.6622 -0.8019  2.2198
10438SOL     OW33307   0.248   8.144   2.805  0.8299 -0.1695 -0.7220
10438SOL    HW133308   0.195   8.205   2.753  0.5219 -0.3616 -0.6321
10438SOL    HW233309   0.248   8.181   2.893  0.3783 -0.4625 -0.5940
10439SOL     OW33310   7.486   7.879   1.952 -0.0655  1.1205  0.0119
10439SOL    HW133311   7.574   7.860   1.921 -0.7638 -1.5069 -0.5652
10439SOL    HW233312   7.484   7.843   2.041 -0.9303 -0.0385 -0.4628
10440SOL     OW33313   5.065   3.989   2.729  0.0576 -0.0665 -0.2644
10440SOL    HW133314   5.110   4.072   2.744  1.3486 -0.6392 -0.7996
10440SOL    HW233315   5.019   4.001   2.646 -1.0712  0.6349  0.4490
10441SOL     OW33316   0.535   4.878   4.304 -0.2304  0.5381  0.2199
10441SOL    HW133317   0.629   4.892   4.316  0.1875 -0.9186 -1.1042
10441SOL    HW233318   0.506   4.839   4.386  0.4087  0.5873  0.4784
10442SOL     OW33319   6.231   0.707   7.894  0.1625  0.0485 -0.6204
10442SOL    HW133320   6.291   0.749   7.833  1.0168 -0.3555 -0.0783
10442SOL    HW233321   6.244   0.613   7.879 -1.6615 -0.0785 -1.7636
10443SOL     OW33322   8.541   5.286   5.118  0.5159 -0.1719 -0.3215
10443SOL    HW133323   8.469   5.224   5.115 -0.5741  1.0484 -0.4062
10443SOL    HW233324   8.620   5.232   5.114 -0.3543 -1.6170  1.0112
10444SOL     OW33325   7.622   1.603   2.717  0.3030 -0.2254  0.0533
10444SOL    HW133326   7.539   1.559   2.698  0.8517 -0.8988 -0.8987
10444SOL    HW233327   7.656   1.558   2.794 -0.9781  1.1623  1.4885
10445SOL     OW33328   5.201   3.336   6.334  0.2426  0.0773 -0.3170
10445SOL    HW133329   5.145   3.267   6.371  1.0169 -0.1559  0.4675
10445SOL    HW233330   5.271   3.346   6.399  0.7941  0.7578 -1.0099
10446SOL     OW33331   0.301   8.744   7.089  0.4202 -0.2888 -0.6291
10446SOL    HW133332   0.307   8.655   7.126 -1.9136  0.0065  0.6499
10446SOL    HW233333   0.244   8.735   7.013 -0.1678  0.1729 -0.2485
10447SOL     OW33334   0.842   5.450   1.656  0.3014 -0.3051  0.4151
10447SOL    HW133335   0.934   5.423   1.657  1.1117  2.0105 -1.4628
10447SOL    HW233336   0.820   5.457   1.563 -1.2024  0.8820  0.8177
10448SOL     OW33337   5.278   5.036   3.652  0.4507 -0.6877  0.3031
10448SOL    HW133338   5.338   4.962   3.639  0.9097 -0.0751 -1.3326
10448SOL    HW233339   5.193   5.003   3.623  0.4370 -0.8848  0.5614
10449SOL     OW33340   1.934   1.218   2.086  0.2090  0.1101 -0.1257
10449SOL    HW133341   1.956   1.282   2.153  0.4703  0.2176 -0.3129
10449SOL    HW233342   2.012   1.163   2.077 -0.9021 -1.9973  1.9834
10450SOL     OW33343   6.399   0.525   7.709  0.3825 -0.1073 -0.2001
10450SOL    HW133344   6.393   0.441   7.663  3.1869 -0.4220 -0.1581
10450SOL    HW233345   6.427   0.587   7.641 -1.9173  0.9695 -0.2998
10451SOL     OW33346   0.527   8.797   1.826  1.0264 -0.2732  0.0295
10451SOL    HW133347   0.449   8.759   1.785  1.0885  0.8672 -1.2132
10451SOL    HW233348   0.533   8.752   1.911 -0.2434 -1.2907 -0.3723
10452SOL     OW33349   7.780   4.754   6.530 -0.2353 -0.1413 -0.1044
10452SOL    HW133350   7.800   4.665   6.558 -1.6308 -0.1569  0.9484
10452SOL    HW233351   7.695   4.747   6.486 -0.8756  0.8017  0.9133
10453SOL     OW33352   2.677   4.487   7.971 -0.3785  0.4982 -0.1703
10453SOL    HW133353   2.760   4.454   8.007  1.6916  1.8093 -3.2157
10453SOL    HW233354   2.629   4.408   7.946  0.5869 -0.3074  0.4107
10454SOL     OW33355   7.058   8.518   0.140 -0.5582  1.4076  0.4509
10454SOL    HW133356   6.977   8.483   0.102 -0.1495  0.9926 -0.0602
10454SOL    HW233357   7.029   8.587   0.198 -1.2359  1.7900 -0.3143
10455SOL     OW33358   2.476   3.828   4.570 -0.1508  0.4404 -0.4944
10455SOL    HW133359   2.473   3.921   4.590 -0.1675  0.3056  0.1484
10455SOL    HW233360   2.524   3.823   4.487  1.3298  0.9012  0.2931
10456SOL     OW33361   5.412   2.945   4.212 -0.3627 -0.7037  0.7558
10456SOL    HW133362   5.398   2.927   4.119 -0.7853  0.5264  0.5609
10456SOL    HW233363   5.455   2.866   4.245  1.9307 -0.2872 -0.9770
10457SOL     OW33364   7.733   4.927   1.193 -0.1447  0.0474 -0.2161
10457SOL    HW133365   7.706   4.869   1.264  0.7779 -0.1643 -0.0168
10457SOL    HW233366   7.786   4.995   1.236  2.5978 -1.4783 -0.9161
10458SOL     OW33367   4.801   5.463   0.933 -0.7252 -0.4039  0.3580
10458SOL    HW133368   4.751   5.487   1.010  0.5223 -2.0129  1.7454
10458SOL    HW233369   4.743   5.404   0.884 -0.7894 -1.0278  1.1560
10459SOL     OW33370   3.574   0.454   3.251  0.2024  0.0073 -0.3721
10459SOL    HW133371   3.540   0.521   3.191 -0.2610  0.9690  0.9228
10459SOL    HW233372   3.497   0.426   3.301  0.9146  0.7178  1.1788
10460SOL     OW33373   1.122   5.011   2.088  0.1672 -0.0709  0.1760
10460SOL    HW133374   1.163   4.950   2.028  0.3704 -0.1631  0.4070
10460SOL    HW233375   1.178   5.011   2.165 -1.5490 -2.0962  1.5480
10461SOL     OW33376   7.193   6.933   7.033  0.3717 -0.2384 -0.2015
10461SOL    HW133377   7.103   6.965   7.024  0.4046 -0.3318 -0.9582
10461SOL    HW233378   7.210   6.934   7.127 -1.5506 -3.3324  0.3129
10462SOL     OW33379   5.217   6.678   5.400 -0.2408  0.0103  0.0152
10462SOL    HW133380   5.218   6.679   5.304  0.9476  0.9542  0.0050
10462SOL    HW233381   5.287   6.739   5.424  0.1546 -0.9983  1.4875
10463SOL     OW33382   1.845   6.868   7.372  0.2813  0.5051  0.0413
10463SOL    HW133383   1.877   6.928   7.440  0.3656  0.2707  0.2088
10463SOL    HW233384   1.861   6.781   7.408  0.6450  0.3740 -0.4278
10464SOL     OW33385   7.060   2.627   5.429 -0.5466 -0.2363  0.4848
10464SOL    HW133386   7.034   2.547   5.382 -1.5023  0.4395 -0.1763
10464SOL    HW233387   7.017   2.698   5.381  0.6182  0.7262  0.8181
10465SOL     OW33388   7.958   4.430   5.294  0.1099 -0.6149 -0.1704
10465SOL    HW133389   7.982   4.348   5.337 -0.5187 -0.1536  1.0928
10465SOL    HW233390   7.865   4.421   5.276 -0.7472  1.0555  2.9116
10466SOL     OW33391   4.263   8.544   6.327 -0.6496 -0.5648  0.1026
10466SOL    HW133392   4.259   8.492   6.407 -0.6137  0.7632  1.0064
10466SOL    HW233393   4.344   8.595   6.335 -1.6587  1.1011  0.2383
10467SOL     OW33394   7.163   2.778   1.375  0.1191  0.2425 -0.0397
10467SOL    HW133395   7.103   2.850   1.360 -0.4873 -0.1515  0.4366
10467SOL    HW233396   7.113   2.716   1.429 -0.0633 -1.4143 -1.9581
10468SOL     OW33397   4.655   5.613   6.972 -0.5717 -0.0830  0.3851
10468SOL    HW133398   4.642   5.582   7.062 -0.1932 -0.1746  0.4115
10468SOL    HW233399   4.585   5.677   6.958 -0.1460  0.5526  1.0413
10469SOL     OW33400   1.020   8.493   0.605 -0.3073 -0.0565  0.4956
10469SOL    HW133401   1.028   8.401   0.580 -0.0269  0.5058 -1.7963
10469SOL    HW233402   0.928   8.503   0.629 -0.6729 -0.6926 -0.5493
10470SOL     OW33403   2.777   3.135   8.718 -0.3851  0.1302 -0.9060
10470SOL    HW133404   2.856   3.100   8.677  0.0073  0.6039 -0.5731
10470SOL    HW233405   2.767   3.222   8.681 -0.4151  0.2980 -0.5122
10471SOL     OW33406   5.231   7.210   8.117  0.3717  0.1783  0.6247
10471SOL    HW133407   5.277   7.294   8.118  1.3635 -0.3155 -0.5879
10471SOL    HW233408   5.166   7.217   8.187  1.3270  1.4461  1.4200
10472SOL     OW33409   3.859   6.764   4.190  0.1947  0.1604 -0.3233
10472SOL    HW133410   3.917   6.701   4.148 -1.3420 -0.4807 -1.5635
10472SOL    HW233411   3.917   6.821   4.240  1.7940 -0.9719 -0.8343
10473SOL     OW33412   1.857   3.820   3.135 -0.1249  0.2002  0.8100
10473SOL    HW133413   1.896   3.754   3.077  2.9514  1.8100  0.8942
10473SOL    HW233414   1.833   3.771   3.214 -0.3545 -1.2431 -0.1054
10474SOL     OW33415   1.771   0.621   8.715  0.0877  0.3884 -0.1389
10474SOL    HW133416   1.703   0.556   8.733 -2.9672  2.7613 -2.1585
10474SOL    HW233417   1.724   0.697   8.682  3.7220  2.5228 -0.9839
10475SOL     OW33418   7.798   7.700   0.318  0.4752 -0.1368  0.1768
10475SOL    HW133419   7.781   7.720   0.225  1.4360  0.5915  0.1459
10475SOL    HW233420   7.711   7.687   0.355  0.0220  0.3726 -0.6608
10476SOL     OW33421   5.408   7.996   2.386  0.0951  0.0423  0.0883
10476SOL    HW133422   5.327   8.007   2.336  0.4848  0.2446 -0.4995
10476SOL    HW233423   5.454   8.079   2.377  0.8025 -0.3912 -0.3527
10477SOL     OW33424   6.721   8.438   6.502 -0.3861  0.3091  0.3363
10477SOL    HW133425   6.702   8.449   6.595  0.7255 -0.6531  0.7026
10477SOL    HW233426   6.704   8.346   6.484  0.0614  0.3305 -0.2444
10478SOL     OW33427   2.837   6.029   5.536 -0.2355 -0.4989 -0.2365
10478SOL    HW133428   2.815   6.055   5.626 -2.5778 -0.5538 -0.7545
10478SOL    HW233429   2.858   5.936   5.543 -0.6382 -0.5580  0.2038
10479SOL     OW33430   1.888   6.060   3.330 -0.0587 -0.3996 -0.0402
10479SOL    HW133431   1.842   6.041   3.412 -1.4220  0.7148 -0.5048
10479SOL    HW233432   1.928   5.977   3.305 -3.7315 -2.1251 -0.7786
10480SOL     OW33433   6.691   1.808   0.995  0.1441 -0.2325 -0.2002
10480SOL    HW133434   6.625   1.739   0.994  1.4765 -1.5656 -0.3754
10480SOL    HW233435   6.767   1.769   0.951  1.8038  0.4501  1.8785
10481SOL     OW33436   0.799   3.044   5.333  0.0261 -0.0815 -0.5931
10481SOL    HW133437   0.822   3.056   5.241 -1.2723  0.1993 -0.9037
10481SOL    HW233438   0.731   2.976   5.332 -0.8384  0.7478  0.0283
10482SOL     OW33439   1.226   3.459   4.010  0.0748  0.0404  0.1196
10482SOL    HW133440   1.264   3.429   3.927  0.4767  0.7997  0.0255
10482SOL    HW233441   1.134   3.476   3.989  0.6280  2.3322 -0.7566
10483SOL     OW33442   6.838   5.955   2.954 -0.5409  0.9044 -0.0126
10483SOL    HW133443   6.890   5.900   3.013 -1.5288 -1.4807 -1.2404
10483SOL    HW233444   6.903   5.996   2.896  0.2518  1.4843  1.2396
10484SOL     OW33445   1.129   8.765   3.135  0.5151 -0.4716 -0.2452
10484SOL    HW133446   1.130   8.703   3.062  1.3786 -0.9903  0.1911
10484SOL    HW233447   1.041   8.803   3.133 -0.1493 -1.9359 -0.3402
10485SOL     OW33448   4.425   8.408   2.910  0.1370 -0.4046  0.3647
10485SOL    HW133449   4.435   8.502   2.894  0.3586 -0.6282 -0.9541
10485SOL    HW233450   4.391   8.374   2.827  0.4744 -1.5516  0.6867
10486SOL     OW33451   4.445   6.415   8.332 -0.3672 -0.0233 -0.5907
10486SOL    HW133452   4.487   6.487   8.286 -0.4581  0.7831  0.5290
10486SOL    HW233453   4.358   6.448   8.356 -0.3699 -0.4547  0.0358
10487SOL     OW33454   6.486   7.921   2.121 -0.5736 -0.5141 -0.6858
10487SOL    HW133455   6.561   7.866   2.098 -1.8015 -1.4533 -2.7382
10487SOL    HW233456   6.512   8.009   2.092 -0.1784 -0.7986 -1.2207
10488SOL     OW33457   5.915   4.324   5.787 -0.1951 -0.0833 -0.2390
10488SOL    HW133458   5.857   4.253   5.760  0.1206 -0.3126 -0.3184
10488SOL    HW233459   5.924   4.313   5.881 -1.9755  1.2225  0.1390
10489SOL     OW33460   5.687   3.963   2.306 -0.3960  0.4401  0.4672
10489SOL    HW133461   5.703   3.957   2.212 -0.0130 -0.0921  0.5616
10489SOL    HW233462   5.751   4.028   2.337  0.3483 -0.3246  0.5546
10490SOL     OW33463   7.570   5.609   1.757 -0.1900 -0.1719  0.4852
10490SOL    HW133464   7.653   5.644   1.790 -0.0987 -0.3700  0.4649
10490SOL    HW233465   7.503   5.653   1.809 -0.0372 -0.7378  1.1718
10491SOL     OW33466   0.126   8.699   0.709  0.3332 -0.0413  0.1364
10491SOL    HW133467   0.078   8.619   0.686 -0.9125  1.0738 -1.4052
10491SOL    HW233468   0.211   8.689   0.668 -0.1030 -0.2604 -0.7499
10492SOL     OW33469   5.893   7.101   1.301  0.1663 -0.2354  0.4897
10492SOL    HW133470   5.966   7.121   1.243 -1.0578  3.8091  0.0153
10492SOL    HW233471   5.820   7.081   1.241  0.4496 -3.0880  0.9391
10493SOL     OW33472   7.699   2.023   0.420 -0.5743 -0.2413  0.1225
10493SOL    HW133473   7.730   2.110   0.445 -0.1032 -0.1527 -0.7372
10493SOL    HW233474   7.606   2.024   0.443 -0.6859  0.6602 -0.3070
10494SOL     OW33475   3.417   5.272   4.079 -0.1351 -0.4524  0.0612
10494SOL    HW133476   3.388   5.347   4.132  3.3943  0.3905  1.0801
10494SOL    HW233477   3.400   5.299   3.989 -0.0256  1.0739  0.4672
10495SOL     OW33478   8.198   6.151   8.697  0.0122  0.2425 -0.0343
10495SOL    HW133479   8.278   6.127   8.744  0.1707 -1.8420 -1.2369
10495SOL    HW233480   8.127   6.117   8.752  0.0283  0.7299  0.2883
10496SOL     OW33481   0.622   6.101   0.833 -0.1479  0.0110  0.2706
10496SOL    HW133482   0.708   6.111   0.792 -1.5256  0.7397 -2.6842
10496SOL    HW233483   0.599   6.188   0.862  1.6683 -0.7616  4.9175
10497SOL     OW33484   2.199   8.883   7.807 -0.0214 -0.2977  0.0396
10497SOL    HW133485   2.204   8.809   7.867  1.2696 -0.4258 -0.2016
10497SOL    HW233486   2.184   8.959   7.864 -0.2744 -0.5978  0.3797
10498SOL     OW33487   7.451   5.497   8.700 -0.4404  0.6579 -0.3711
10498SOL    HW133488   7.540   5.492   8.733 -0.8360  0.0584  0.6852
10498SOL    HW233489   7.460   5.511   8.606  0.7865 -1.2170 -0.5794
10499SOL     OW33490   1.477   8.128   3.711  0.5336  0.2867 -0.1703
10499SOL    HW133491   1.472   8.098   3.802  1.5841  0.4764 -0.0436
10499SOL    HW233492   1.534   8.204   3.714  0.3163  0.4883 -0.9522
10500SOL     OW33493   5.622   3.557   3.408  0.3280 -0.2543  0.3106
10500SOL    HW133494   5.529   3.538   3.419  0.0110  1.1687  0.1895
10500SOL    HW233495   5.644   3.614   3.481  1.0382 -0.3135  0.1496
10501SOL     OW33496   2.364   7.887   7.394 -0.3209 -0.0567 -0.1733
10501SOL    HW133497   2.318   7.969   7.413 -1.0381 -0.5565  0.2942
10501SOL    HW233498   2.453   7.914   7.372 -1.1053  1.0482 -2.2994
10502SOL     OW33499   2.863   0.135   1.686 -0.2618  0.5939  0.1399
10502SOL    HW133500   2.870   0.084   1.605 -1.0184 -1.0379  1.0616
10502SOL    HW233501   2.770   0.138   1.706  0.0396 -1.1732  2.2137
10503SOL     OW33502   2.938   3.137   2.056 -0.3286 -0.0698  0.0834
10503SOL    HW133503   2.920   3.188   2.135 -1.1085 -0.4821  0.1824
10503SOL    HW233504   2.908   3.192   1.984 -1.6642 -0.5709  0.2205
10504SOL     OW33505   2.773   1.932   3.147  1.0140  0.2330 -0.0362
10504SOL    HW133506   2.858   1.889   3.140  0.6757 -0.2154 -1.9448
10504SOL    HW233507   2.712   1.870   3.108  0.3126  1.8813 -1.6858
10505SOL     OW33508   2.461   5.998   5.655 -0.5294 -0.3718 -0.1076
10505SOL    HW133509   2.547   5.966   5.681 -0.4872 -0.8040 -0.7500
10505SOL    HW233510   2.417   6.021   5.737  0.9482  1.8471  0.1539
10506SOL     OW33511   6.636   6.043   1.036 -0.5510  0.2474  0.4322
10506SOL    HW133512   6.595   5.977   1.092 -0.0123  0.5423  1.2055
10506SOL    HW233513   6.574   6.057   0.965 -0.7127 -1.0308  0.2892
10507SOL     OW33514   0.934   0.850   4.763  0.1315 -0.1108  0.5459
10507SOL    HW133515   0.975   0.777   4.717  1.1432 -0.2877  1.6732
10507SOL    HW233516   0.998   0.921   4.758  0.7604 -0.4677  2.5435
10508SOL     OW33517   8.849   3.568   8.344 -0.3906  0.0978 -0.4959
10508SOL    HW133518   8.901   3.489   8.327 -0.0274  0.0277  0.8366
10508SOL    HW233519   8.895   3.637   8.296  0.7423 -0.0424  0.3326
10509SOL     OW33520   0.417   1.262   7.328  0.8818 -0.6582 -0.3299
10509SOL    HW133521   0.362   1.291   7.400  0.1049 -2.7295 -0.0560
10509SOL    HW233522   0.502   1.302   7.346  0.0052  1.1038  0.2040
10510SOL     OW33523   8.405   1.819   5.574  0.1127  0.0890  0.6895
10510SOL    HW133524   8.348   1.748   5.546 -0.9320  0.1709  2.4508
10510SOL    HW233525   8.436   1.792   5.660  0.6082  1.2440  0.8906
10511SOL     OW33526   1.628   3.216   3.153  0.1190  0.4316 -0.1330
10511SOL    HW133527   1.705   3.192   3.102  0.5060  0.7752  0.2791
10511SOL    HW233528   1.644   3.179   3.239 -0.3250  0.2342 -0.1359
10512SOL     OW33529   2.359   5.071   8.400 -0.5560 -0.2735  0.2101
10512SOL    HW133530   2.444   5.057   8.357 -0.2999  2.1039 -0.1473
10512SOL    HW233531   2.370   5.033   8.487  0.7903 -0.2159  0.0860
10513SOL     OW33532   1.325   1.405   5.980  0.0697 -0.1362  0.0883
10513SOL    HW133533   1.387   1.334   5.963  3.2291  1.8436  2.3498
10513SOL    HW233534   1.334   1.464   5.906  0.6091 -0.0708  0.2029
10514SOL     OW33535   0.634   4.842   3.910  0.1198 -0.3625 -0.2192
10514SOL    HW133536   0.595   4.912   3.963 -2.6989 -0.8135 -1.5327
10514SOL    HW233537   0.601   4.761   3.949  0.2175 -0.8118 -1.0465
10515SOL     OW33538   6.476   5.108   3.215 -0.1914 -0.2702 -0.0930
10515SOL    HW133539   6.433   5.161   3.148  0.0284 -0.8278 -0.6917
10515SOL    HW233540   6.434   5.133   3.297 -3.0413 -2.1297 -0.8282
10516SOL     OW33541   3.482   1.617   4.716 -0.5217  0.2077  0.6706
10516SOL    HW133542   3.467   1.604   4.809 -0.8951  0.6414  0.6729
10516SOL    HW233543   3.497   1.529   4.681  0.2044  0.0966  1.2354
10517SOL     OW33544   6.880   4.038   6.000  0.0903  0.2291  0.1897
10517SOL    HW133545   6.910   3.967   6.057 -0.7440 -0.0216  0.3263
10517SOL    HW233546   6.847   3.994   5.922 -2.1385  0.3109  1.0264
10518SOL     OW33547   3.411   5.096   1.679 -0.4937  0.0802  0.0603
10518SOL    HW133548   3.414   5.177   1.729 -0.9932 -0.0331  0.2782
10518SOL    HW233549   3.497   5.090   1.637 -0.9048  1.3781 -1.0182
10519SOL     OW33550   4.249   6.167   7.602 -0.4916  0.1239  0.0232
10519SOL    HW133551   4.198   6.121   7.535 -0.0499  0.9070 -0.8751
10519SOL    HW233552   4.265   6.253   7.565  0.0989  0.4474  0.9905
10520SOL     OW33553   8.872   8.056   1.054  0.2351 -0.4817  0.1175
10520SOL    HW133554   8.937   8.107   1.007  0.2465 -1.1645 -0.6510
10520SOL    HW233555   8.788   8.081   1.013  0.4809 -3.0881 -2.3205
10521SOL     OW33556   3.278   6.582   8.230 -0.1688 -0.7849  0.2425
10521SOL    HW133557   3.200   6.638   8.231  0.6235  0.5730 -2.6610
10521SOL    HW233558   3.333   6.617   8.300 -1.2655 -0.4002  0.9454
10522SOL     OW33559   6.942   1.762   5.426  0.2063 -0.0064  1.1579
10522SOL    HW133560   6.922   1.758   5.520  1.1255  2.2879  1.5150
10522SOL    HW233561   6.880   1.827   5.391  0.3438 -0.3233  0.3040
10523SOL     OW33562   8.858   0.349   6.133  0.2519  0.5441  0.1553
10523SOL    HW133563   8.794   0.342   6.062  0.3497  1.8385 -0.0893
10523SOL    HW233564   8.881   0.259   6.153 -3.4205 -0.1772  1.9168
10524SOL     OW33565   1.896   8.395   6.579 -0.1956 -0.1889  0.1897
10524SOL    HW133566   1.890   8.324   6.643  1.1838 -0.9318 -0.4688
10524SOL    HW233567   1.857   8.470   6.624 -0.2802 -0.9663  1.4793
10525SOL     OW33568   1.331   5.974   0.204  0.1206 -0.0997 -0.1799
10525SOL    HW133569   1.417   6.011   0.182  0.3211  0.0044  0.7330
10525SOL    HW233570   1.283   5.976   0.121  1.0166 -0.2323 -0.7304
10526SOL     OW33571   7.044   0.760   5.090  0.0964 -0.2617 -0.2697
10526SOL    HW133572   7.008   0.717   5.168 -0.0688 -0.5879 -0.5251
10526SOL    HW233573   6.999   0.719   5.017  1.0696 -0.7516 -0.6019
10527SOL     OW33574   2.642   2.709   0.888 -0.1102  0.4545 -0.2202
10527SOL    HW133575   2.636   2.618   0.918  0.4283  0.8553  1.1900
10527SOL    HW233576   2.736   2.722   0.872  0.1663  1.4518  1.9505
10528SOL     OW33577   0.857   8.256   3.027 -0.1661 -0.1540  0.0828
10528SOL    HW133578   0.943   8.223   3.001 -0.7690 -2.2292  0.5696
10528SOL    HW233579   0.869   8.284   3.118 -0.2457 -1.4886  0.5215
10529SOL     OW33580   2.301   7.204   5.947  0.4791 -0.4285 -0.5614
10529SOL    HW133581   2.258   7.120   5.962 -1.6157  0.4834 -1.1714
10529SOL    HW233582   2.265   7.236   5.864  2.5094  0.3365 -1.2380
10530SOL     OW33583   1.800   4.605   4.904  0.2777  0.3496  0.1992
10530SOL    HW133584   1.814   4.699   4.915 -0.7525  0.6047 -0.5065
10530SOL    HW233585   1.767   4.596   4.815 -0.3312 -0.6075  0.5050
10531SOL     OW33586   4.025   0.131   4.072  0.2337  0.3954  0.2541
10531SOL    HW133587   3.942   0.155   4.114 -1.4657 -0.3538 -2.4420
10531SOL    HW233588   4.021   0.172   3.986  0.8368 -2.7935 -1.4346
10532SOL     OW33589   4.326   6.994   6.537 -0.0245  0.0449  0.3075
10532SOL    HW133590   4.280   6.947   6.607 -1.9354 -0.6805 -1.3263
10532SOL    HW233591   4.266   7.064   6.511 -0.7339 -1.4139 -2.4307
10533SOL     OW33592   2.112   3.111   1.617 -0.8038 -0.4058 -0.1180
10533SOL    HW133593   2.135   3.020   1.636 -1.6657 -0.4174  0.8923
10533SOL    HW233594   2.180   3.139   1.556 -0.2663 -1.5843 -0.1030
10534SOL     OW33595   4.330   2.598   6.234  0.4476 -0.7785  0.7780
10534SOL    HW133596   4.363   2.541   6.165  0.7083 -1.4117  1.4056
10534SOL    HW233597   4.337   2.545   6.314 -0.3892 -0.2771  1.2010
10535SOL     OW33598   3.173   6.021   3.195 -0.6948 -0.6459 -0.1319
10535SOL    HW133599   3.174   6.097   3.253  1.9689 -2.7430  2.8858
10535SOL    HW233600   3.249   6.032   3.139 -0.2524 -1.0882  0.3712
10536SOL     OW33601   3.206   1.004   0.426  0.0235  0.2115 -0.6556
10536SOL    HW133602   3.260   1.002   0.347 -0.6031  0.3473 -1.0879
10536SOL    HW233603   3.118   0.984   0.396 -0.3845  1.1655 -0.1271
10537SOL     OW33604   5.589   6.312   4.078 -1.1689  0.4420 -0.2051
10537SOL    HW133605   5.667   6.274   4.038 -2.2446 -1.4603 -0.6525
10537SOL    HW233606   5.613   6.402   4.099  0.9686  0.0415 -0.7492
10538SOL     OW33607   6.572   7.307   2.630  0.3352  0.0021 -0.3650
10538SOL    HW133608   6.623   7.262   2.563  2.4873 -0.0652  1.2103
10538SOL    HW233609   6.530   7.237   2.679  1.8722 -0.2318  0.6874
10539SOL     OW33610   2.885   6.572   1.640 -0.5244 -0.0786  0.2358
10539SOL    HW133611   2.965   6.540   1.597 -1.6464 -1.3694 -0.9996
10539SOL    HW233612   2.851   6.640   1.581 -1.6448 -1.2916 -0.5604
10540SOL     OW33613   5.257   3.595   2.925  0.0434  0.0958 -0.6688
10540SOL    HW133614   5.315   3.533   2.968 -1.2018 -0.2665  0.5517
10540SOL    HW233615   5.170   3.574   2.958 -0.3268  3.1439  0.6712
10541SOL     OW33616   1.395   5.255   0.170 -0.0203  0.1434 -0.5113
10541SOL    HW133617   1.377   5.208   0.251 -1.0889  0.8490 -0.3090
10541SOL    HW233618   1.478   5.300   0.186  0.0645 -0.1771 -0.0209
10542SOL     OW33619   6.355   0.196   1.872 -0.2312 -0.0348  0.2089
10542SOL    HW133620   6.431   0.242   1.835  0.0638  1.0259  1.9923
10542SOL    HW233621   6.385   0.106   1.884  0.5709  0.2458  0.3787
10543SOL     OW33622   7.405   8.328   5.938  0.2744  0.1065  0.2474
10543SOL    HW133623   7.316   8.343   5.906  0.6352  0.9225 -0.4010
10543SOL    HW233624   7.408   8.372   6.022  0.2053  0.4705  0.0592
10544SOL     OW33625   5.275   8.836   1.371  0.2895 -0.1233  0.2107
10544SOL    HW133626   5.271   8.766   1.305 -1.1442 -1.8012  1.9545
10544SOL    HW233627   5.337   8.899   1.335  2.5211 -2.7868 -0.9898
10545SOL     OW33628   1.097   8.107   5.433  0.3986 -0.2145  0.0609
10545SOL    HW133629   1.130   8.100   5.523  0.9931  1.0842 -0.0380
10545SOL    HW233630   1.027   8.171   5.438  0.0958 -0.5095 -0.3287
10546SOL     OW33631   4.410   0.824   0.908  0.0380  0.1641 -0.3137
10546SOL    HW133632   4.354   0.884   0.957  1.2459  0.9318  0.1819
10546SOL    HW233633   4.480   0.880   0.875 -0.2430 -0.4940 -2.1605
10547SOL     OW33634   0.337   0.169   8.383  0.1746  0.1857  0.4543
10547SOL    HW133635   0.418   0.207   8.418  0.3235 -0.1454  0.4650
10547SOL    HW233636   0.333   0.081   8.419 -0.0694  0.1139  0.2575
10548SOL     OW33637   0.795   0.030   6.296  0.0985 -0.2197  0.0136
10548SOL    HW133638   0.714   0.064   6.335 -0.6552 -1.2993 -0.5317
10548SOL    HW233639   0.857   0.026   6.369 -0.5363  0.0245  0.5827
10549SOL     OW33640   3.350   6.991   4.838  0.2388 -0.1143 -0.4221
10549SOL    HW133641   3.377   7.007   4.748 -1.1372  0.4912 -0.7576
10549SOL    HW233642   3.259   7.021   4.841 -0.5736 -2.4383  0.5022
10550SOL     OW33643   1.621   3.838   3.714  0.1575 -0.4444  0.1277
10550SOL    HW133644   1.679   3.868   3.644 -1.0772  0.0308 -0.7401
10550SOL    HW233645   1.586   3.919   3.752 -0.7436 -0.7313 -0.0771
10551SOL     OW33646   6.237   0.405   6.797  0.2149  0.2181  0.3257
10551SOL    HW133647   6.178   0.460   6.849  0.0016  0.6724 -0.3854
10551SOL    HW233648   6.280   0.465   6.737  0.8334 -0.2308  0.3125
10552SOL     OW33649   2.959   2.883   7.317 -0.6543  0.7608 -0.5369
10552SOL    HW133650   3.035   2.940   7.331  1.5694 -2.0309 -0.1758
10552SOL    HW233651   2.891   2.919   7.374  1.2344  1.9940  1.0887
10553SOL     OW33652   7.429   2.826   2.607  0.1646  0.2100 -0.2241
10553SOL    HW133653   7.498   2.759   2.603 -1.7544 -1.8315 -1.0143
10553SOL    HW233654   7.404   2.841   2.516 -0.9396  0.3565  0.0878
10554SOL     OW33655   5.572   1.485   5.038 -0.0679 -0.4466  0.0625
10554SOL    HW133656   5.583   1.469   4.944  0.2854  0.5639 -0.0877
10554SOL    HW233657   5.488   1.531   5.045  1.1131  1.9021 -0.1116
10555SOL     OW33658   8.353   8.796   6.274 -0.3972 -0.3832  0.3275
10555SOL    HW133659   8.294   8.754   6.336 -0.7219  0.3576  0.5344
10555SOL    HW233660   8.382   8.875   6.319 -2.3356  1.3398 -1.2685
10556SOL     OW33661   5.393   4.549   5.179 -0.0882 -0.1301 -0.2594
10556SOL    HW133662   5.436   4.566   5.263 -0.2168  1.0098 -0.4030
10556SOL    HW233663   5.353   4.463   5.189  0.2550 -0.1848  0.7051
10557SOL     OW33664   8.035   8.456   1.545  0.7876 -0.0817  0.4591
10557SOL    HW133665   8.036   8.368   1.582 -0.1157  0.0919  0.9087
10557SOL    HW233666   8.091   8.450   1.467 -1.5165 -1.8075 -1.2088
10558SOL     OW33667   7.863   4.621   5.685 -0.3180 -0.4234 -0.4912
10558SOL    HW133668   7.802   4.663   5.746 -0.1013  2.5523 -2.1153
10558SOL    HW233669   7.927   4.578   5.742 -1.1283  0.6431  1.3546
10559SOL     OW33670   3.873   2.044   6.838  0.2907 -0.5327 -0.3909
10559SOL    HW133671   3.865   2.078   6.927  1.6170  0.9008 -0.7711
10559SOL    HW233672   3.788   2.062   6.798 -0.0480 -0.4619  0.3491
10560SOL     OW33673   4.420   1.910   1.131 -0.4033 -0.1484 -0.2567
10560SOL    HW133674   4.413   1.954   1.216 -0.2792 -1.1885  0.3142
10560SOL    HW233675   4.349   1.947   1.079  0.1144  1.2109 -0.0398
10561SOL     OW33676   3.777   5.293   8.138  0.4602  0.2417 -0.1501
10561SOL    HW133677   3.687   5.302   8.170  1.2548  2.0411  1.8155
10561SOL    HW233678   3.773   5.221   8.074 -1.6924 -2.2305  2.4705
10562SOL     OW33679   6.992   7.862   0.179  0.1195 -0.4192 -0.0476
10562SOL    HW133680   7.060   7.930   0.171 -2.3581  2.1864 -0.7418
10562SOL    HW233681   6.946   7.885   0.260 -1.4531 -0.5820 -0.8680
10563SOL     OW33682   8.737   5.784   2.324  0.1984  0.0997 -0.2142
10563SOL    HW133683   8.661   5.726   2.317 -1.2893  1.9576 -0.3794
10563SOL    HW233684   8.800   5.748   2.262 -0.5292 -1.5026 -0.0696
10564SOL     OW33685   0.163   4.435   6.130 -0.6560  0.1535  0.2751
10564SOL    HW133686   0.072   4.410   6.146 -0.6583  0.8813  1.4642
10564SOL    HW233687   0.158   4.507   6.067 -0.9153  0.3786  0.5535
10565SOL     OW33688   1.439   3.621   8.054 -0.2785 -0.3495 -0.2706
10565SOL    HW133689   1.386   3.639   7.977  0.8361 -0.4861 -1.0923
10565SOL    HW233690   1.509   3.686   8.052 -2.6553  2.7247  3.1670
10566SOL     OW33691   2.898   1.759   8.112  0.0493  0.3634  0.6884
10566SOL    HW133692   2.974   1.701   8.108  0.0757  0.4655 -2.1900
10566SOL    HW233693   2.929   1.837   8.158  1.6743  0.3627 -0.3266
10567SOL     OW33694   5.296   2.274   6.475 -0.0881 -0.5998  0.2772
10567SOL    HW133695   5.292   2.363   6.441  0.2343 -0.5167  0.4530
10567SOL    HW233696   5.232   2.226   6.423  1.6361 -0.8901 -1.7257
10568SOL     OW33697   3.947   0.039   5.840 -0.2605  0.6298  0.3433
10568SOL    HW133698   3.903  -0.035   5.797 -1.6759  1.4090  0.3709
10568SOL    HW233699   3.975   0.095   5.767 -1.5172  1.3164  0.3499
10569SOL     OW33700   4.089   0.302   5.274 -0.3189 -0.2509  0.0498
10569SOL    HW133701   4.152   0.364   5.237 -0.7737  1.8596  2.5443
10569SOL    HW233702   4.004   0.344   5.262 -0.6452 -0.3510  1.7170
10570SOL     OW33703   5.634   6.846   2.807 -0.2499 -0.8456  0.0078
10570SOL    HW133704   5.719   6.815   2.776 -0.8010  0.2072 -2.8288
10570SOL    HW233705   5.576   6.771   2.799 -0.5788 -0.3953 -2.6012
10571SOL     OW33706   4.228   1.837   3.379  0.3928 -0.3057  1.2174
10571SOL    HW133707   4.280   1.765   3.342  1.9146  1.4399 -0.2676
10571SOL    HW233708   4.203   1.806   3.466  1.8432 -2.2149  1.0284
10572SOL     OW33709   0.942   4.761   4.779 -0.0019  0.1355 -0.2239
10572SOL    HW133710   1.005   4.756   4.851 -0.0385 -0.6346 -0.2435
10572SOL    HW233711   0.959   4.847   4.740  0.6674  0.1660  0.1066
10573SOL     OW33712   5.258   7.278   2.444  0.0733  0.0815  0.1931
10573SOL    HW133713   5.212   7.311   2.367 -0.0316  0.4600  0.4140
10573SOL    HW233714   5.215   7.322   2.518  0.7402  0.3943  0.4064
10574SOL     OW33715   8.439   7.818   3.196 -0.0409 -0.2800 -0.3154
10574SOL    HW133716   8.413   7.729   3.175  0.8158 -0.7865  0.6819
10574SOL    HW233717   8.380   7.873   3.145 -2.6879 -1.3425  1.3868
10575SOL     OW33718   2.850   1.099   7.798 -0.0330 -0.2723  0.4135
10575SOL    HW133719   2.927   1.132   7.752  1.2572 -2.2982  0.9676
10575SOL    HW233720   2.804   1.046   7.733  0.0756 -0.5837  0.5873
10576SOL     OW33721   7.533   8.386   6.198 -0.1785  0.2882  0.0016
10576SOL    HW133722   7.508   8.353   6.284 -0.2124  0.7168  0.1560
10576SOL    HW233723   7.627   8.400   6.204  0.2651 -1.9871 -0.7957
10577SOL     OW33724   5.282   5.146   4.462  0.4440  0.1828  0.2639
10577SOL    HW133725   5.308   5.157   4.370 -1.6141  0.6928 -0.2967
10577SOL    HW233726   5.214   5.212   4.476 -0.2667 -0.8099  1.7508
10578SOL     OW33727   3.270   0.696   5.293 -0.4742 -0.7802 -0.1698
10578SOL    HW133728   3.279   0.650   5.210  0.4215 -1.9795  0.5459
10578SOL    HW233729   3.279   0.627   5.359 -1.6135  0.0746  0.9173
10579SOL     OW33730   1.300   7.937   1.845 -0.0492  0.6512 -0.2687
10579SOL    HW133731   1.386   7.921   1.807  0.0789 -2.3336  0.9176
10579SOL    HW233732   1.318   7.981   1.928  0.5632 -1.1515  0.6202
10580SOL     OW33733   8.821   5.037   0.491 -0.3111 -1.0357 -0.0665
10580SOL    HW133734   8.740   5.079   0.461  0.6398  0.4862 -0.6619
10580SOL    HW233735   8.890   5.096   0.461  1.2235 -3.4926 -1.8012
10581SOL     OW33736   4.282   7.221   6.226 -0.3417 -0.7183  0.4112
10581SOL    HW133737   4.348   7.282   6.261  0.0007 -0.4541 -0.6650
10581SOL    HW233738   4.333   7.155   6.179 -0.8081 -0.8589  0.0940
10582SOL     OW33739   7.434   0.660   8.126  0.0031  0.3334  0.1925
10582SOL    HW133740   7.364   0.612   8.082 -1.3255  2.4012 -0.0758
10582SOL    HW233741   7.468   0.719   8.059  1.2107  0.1925  0.6649
10583SOL     OW33742   5.328   4.674   7.016  0.4000 -0.8969 -0.0403
10583SOL    HW133743   5.411   4.705   7.054  1.1367 -3.0844  0.2390
10583SOL    HW233744   5.263   4.690   7.084  0.9514 -0.9679  0.5114
10584SOL     OW33745   3.863   8.101   5.636  0.3087  0.3159 -0.0629
10584SOL    HW133746   3.819   8.040   5.696  1.0936  0.4426  0.6594
10584SOL    HW233747   3.811   8.098   5.556 -1.3292  0.8505  0.9278
10585SOL     OW33748   5.983   7.942   2.099 -0.4125  0.2648  0.7773
10585SOL    HW133749   5.942   7.945   2.185  0.4372 -0.3044  1.2166
10585SOL    HW233750   5.977   7.850   2.072  0.2971  0.2213  0.7260
10586SOL     OW33751   0.424   1.467   5.322  0.3303 -0.7066 -0.0407
10586SOL    HW133752   0.384   1.551   5.301  0.5072 -0.3261  1.0615
10586SOL    HW233753   0.518   1.483   5.315  0.3777 -0.6926  0.5397
10587SOL     OW33754   7.117   5.047   3.626 -0.0815 -0.1693 -0.3799
10587SOL    HW133755   7.121   5.113   3.556 -0.4213  0.9467  0.6163
10587SOL    HW233756   7.040   4.995   3.605 -0.0282 -0.0129 -0.9828
10588SOL     OW33757   6.917   1.634   3.887 -0.4069  0.2570 -0.1723
10588SOL    HW133758   6.899   1.672   3.801 -1.1314  0.1004 -0.0993
10588SOL    HW233759   6.977   1.695   3.928 -2.2669  1.8605  0.3134
10589SOL     OW33760   5.015   4.755   5.416  0.0748  0.2656  0.1356
10589SOL    HW133761   5.061   4.671   5.420  1.2814  0.8462 -0.7211
10589SOL    HW233762   5.076   4.817   5.456  0.5271  1.2240 -1.8980
10590SOL     OW33763   6.877   2.462   3.013 -0.1545 -0.5510  0.6861
10590SOL    HW133764   6.940   2.445   3.082  0.0401 -1.6443  0.2678
10590SOL    HW233765   6.803   2.503   3.057  0.5534  0.0906  1.2941
10591SOL     OW33766   2.859   7.043   5.301  0.3410 -0.2506 -0.5964
10591SOL    HW133767   2.796   6.985   5.344  1.5419 -1.0675  0.1259
10591SOL    HW233768   2.904   6.987   5.238  0.0529  0.4348 -1.4276
10592SOL     OW33769   0.692   4.427   4.343 -0.1831 -0.0023 -0.3100
10592SOL    HW133770   0.719   4.502   4.396  0.2960 -1.0766  1.0396
10592SOL    HW233771   0.605   4.404   4.376  0.4795 -1.2215  0.6940
10593SOL     OW33772   0.642   5.561   3.745  0.1163  0.4886  0.9415
10593SOL    HW133773   0.736   5.572   3.734  0.1766 -0.5114  0.3836
10593SOL    HW233774   0.608   5.650   3.756  1.1751  0.8239  1.6059
10594SOL     OW33775   5.833   6.902   4.675  0.5589  0.4740  0.0718
10594SOL    HW133776   5.910   6.956   4.655  0.7009  0.2321 -0.0358
10594SOL    HW233777   5.762   6.965   4.684  0.6492  0.6546 -0.4288
10595SOL     OW33778   3.705   2.221   8.107 -0.3590  0.2029  0.1196
10595SOL    HW133779   3.678   2.305   8.145 -0.3849  0.9154 -1.3849
10595SOL    HW233780   3.792   2.238   8.070 -0.6090 -0.2653 -0.7049
10596SOL     OW33781   1.929   5.933   5.822 -0.2163 -0.4666  0.6434
10596SOL    HW133782   1.913   6.003   5.758 -3.3152 -2.7365 -1.3710
10596SOL    HW233783   2.023   5.919   5.819  0.0598  1.2515 -1.5085
10597SOL     OW33784   1.234   3.482   2.361  0.2828 -0.1744 -0.1345
10597SOL    HW133785   1.171   3.433   2.308  1.1917 -1.1101 -0.3803
10597SOL    HW233786   1.212   3.458   2.451 -0.5149  0.5067 -0.1328
10598SOL     OW33787   4.368   7.864   6.464  0.0447 -0.2728  0.6837
10598SOL    HW133788   4.343   7.929   6.530 -1.3306 -0.6271  0.5435
10598SOL    HW233789   4.311   7.789   6.481  1.0715 -1.1523  0.3469
10599SOL     OW33790   3.705   5.203   2.279  0.4297  0.1734  0.1873
10599SOL    HW133791   3.757   5.226   2.356  2.4743 -1.8042 -0.4827
10599SOL    HW233792   3.710   5.108   2.275 -1.3436  0.0951 -1.2756
10600SOL     OW33793   2.600   8.202   2.467 -0.0377  0.1099  0.3692
10600SOL    HW133794   2.506   8.200   2.481 -0.0348  0.2850  0.4172
10600SOL    HW233795   2.624   8.111   2.453 -0.1655  0.0262  0.6792
10601SOL     OW33796   6.397   0.612   0.559  0.1882 -0.4445 -0.0653
10601SOL    HW133797   6.393   0.561   0.640  0.8798  0.4056  0.5398
10601SOL    HW233798   6.446   0.557   0.498  1.5943 -0.2318  0.8179
10602SOL     OW33799   1.823   8.474   7.766 -0.5235 -0.3369  0.1031
10602SOL    HW133800   1.851   8.445   7.853 -2.5905 -0.2370  0.8702
10602SOL    HW233801   1.795   8.564   7.780 -0.4142 -0.1640 -0.7866
10603SOL     OW33802   0.785   3.214   5.512  0.6984  0.4010  0.4677
10603SOL    HW133803   0.770   3.165   5.431  0.1960  1.8900 -0.3854
10603SOL    HW233804   0.844   3.285   5.487 -0.0063  1.2930  1.2182
10604SOL     OW33805   7.983   0.621   3.302 -0.8649  0.0757  0.5311
10604SOL    HW133806   7.890   0.646   3.300 -0.3934  1.9038  0.1103
10604SOL    HW233807   8.016   0.659   3.383 -0.5019 -0.7318  0.7701
10605SOL     OW33808   0.719   1.813   6.772 -0.1536  0.2654  0.1820
10605SOL    HW133809   0.664   1.765   6.833 -1.6826  2.4724  0.6636
10605SOL    HW233810   0.798   1.759   6.763 -0.6441 -1.0277  2.6884
10606SOL     OW33811   2.099   3.723   6.985  0.2509 -0.1745  0.5547
10606SOL    HW133812   2.138   3.673   7.057  1.4662 -2.0806 -1.2940
10606SOL    HW233813   2.143   3.690   6.906 -1.4383  1.3716 -1.1508
10607SOL     OW33814   8.501   8.298   2.503  0.3524 -0.5319 -0.1795
10607SOL    HW133815   8.524   8.364   2.438  2.3791  2.1717  2.9459
10607SOL    HW233816   8.583   8.255   2.525 -0.7773 -3.6117 -1.4334
10608SOL     OW33817   3.934   3.618   6.936  0.1941  0.5707 -0.1761
10608SOL    HW133818   3.974   3.669   6.866  0.1969 -1.1244 -1.4747
10608SOL    HW233819   3.995   3.545   6.950  0.8521  1.5214  2.5366
10609SOL     OW33820   0.475   1.136   6.055  0.0393  0.7942  0.7625
10609SOL    HW133821   0.462   1.048   6.090 -0.4021  0.4131 -0.3138
10609SOL    HW233822   0.407   1.145   5.987  0.9662  1.4320 -0.1044
10610SOL     OW33823   8.316   7.019   3.449 -0.0302  0.0662  0.3653
10610SOL    HW133824   8.356   7.029   3.363 -0.7367  1.2109  0.1508
10610SOL    HW233825   8.235   6.971   3.432 -2.1497  3.5730 -0.2552
10611SOL     OW33826   7.818   5.394   4.261 -0.0713  0.3519  0.0112
10611SOL    HW133827   7.791   5.485   4.255 -2.5271 -0.2305  1.2558
10611SOL    HW233828   7.832   5.367   4.170 -1.6192  1.3458 -0.5487
10612SOL     OW33829   5.275   1.402   1.343 -0.0937 -0.4732 -0.7309
10612SOL    HW133830   5.206   1.368   1.287 -0.0185 -2.4701  0.3028
10612SOL    HW233831   5.232   1.469   1.397 -0.6765 -0.1513 -1.5839
10613SOL     OW33832   1.421   0.564   0.821 -0.4246  0.1674  0.0107
10613SOL    HW133833   1.410   0.640   0.764  0.3460 -0.0257 -0.4165
10613SOL    HW233834   1.453   0.495   0.762 -1.7683 -0.7050  0.2470
10614SOL     OW33835   0.546   6.803   3.877  0.2820 -0.0594 -0.2820
10614SOL    HW133836   0.603   6.877   3.859 -1.4050  0.8872 -2.2166
10614SOL    HW233837   0.528   6.765   3.791 -0.9969 -1.0555  0.3856
10615SOL     OW33838   2.793   8.752   2.060 -0.1122  0.2442  0.3211
10615SOL    HW133839   2.722   8.816   2.061 -1.5031 -1.1874 -0.6123
10615SOL    HW233840   2.771   8.691   2.132 -0.6773 -1.0177 -0.8708
10616SOL     OW33841   6.255   8.161   4.006  0.1420 -0.2752  0.1116
10616SOL    HW133842   6.348   8.141   4.015  1.0029  2.2970 -1.7845
10616SOL    HW233843   6.232   8.131   3.918  0.0786  1.7800 -0.6398
10617SOL     OW33844   6.688   0.053   6.416 -0.0062 -0.1419 -0.1635
10617SOL    HW133845   6.752   0.107   6.369  1.1249 -1.6746 -0.4558
10617SOL    HW233846   6.729   0.035   6.500 -1.1498  0.8971  0.6367
10618SOL     OW33847   3.191   6.784   5.561 -0.4338  0.7312  0.0287
10618SOL    HW133848   3.269   6.742   5.524 -1.8102 -1.2567 -0.7490
10618SOL    HW233849   3.197   6.766   5.655 -0.8173 -0.9940 -0.2422
10619SOL     OW33850   2.242   8.281   1.194  0.6904 -0.3057 -0.2398
10619SOL    HW133851   2.285   8.196   1.193  0.5952 -0.3553 -0.9279
10619SOL    HW233852   2.301   8.338   1.145  0.8709  0.0895  0.4279
10620SOL     OW33853   2.520   3.875   2.605  0.5096 -0.1063  1.1469
10620SOL    HW133854   2.556   3.955   2.643  1.8303  0.1547 -0.5498
10620SOL    HW233855   2.438   3.861   2.653  0.4067  2.0725  1.7198
10621SOL     OW33856   1.847   1.430   0.104  0.0578  0.4865  0.2718
10621SOL    HW133857   1.892   1.466   0.181  1.5790  0.9611 -0.7819
10621SOL    HW233858   1.871   1.490   0.032 -1.0521 -0.1252 -0.6475
10622SOL     OW33859   1.877   5.540   0.760 -0.0505 -0.7013  0.3046
10622SOL    HW133860   1.793   5.494   0.754 -0.5262 -0.0439  1.4828
10622SOL    HW233861   1.894   5.571   0.671 -2.3842  1.3945  0.4718
10623SOL     OW33862   4.189   3.260   2.788  0.6729  0.1639 -0.7467
10623SOL    HW133863   4.130   3.283   2.716  0.7322  0.0073 -0.8449
10623SOL    HW233864   4.274   3.297   2.763  0.0080  2.9737  0.7178
10624SOL     OW33865   6.283   8.528   8.110  0.5652  0.1898  0.2575
10624SOL    HW133866   6.287   8.479   8.192 -2.4769 -2.3940 -0.9545
10624SOL    HW233867   6.193   8.559   8.104  1.3377  2.4506 -1.0618
10625SOL     OW33868   2.822   6.408   0.566 -0.2118  0.0331 -0.0079
10625SOL    HW133869   2.879   6.465   0.618 -0.3442  0.1624 -0.0046
10625SOL    HW233870   2.805   6.459   0.486 -1.8937  0.8164  0.8093
10626SOL     OW33871   3.595   4.125   0.093  0.2140 -0.1006  0.4692
10626SOL    HW133872   3.602   4.089   0.182  0.8320 -1.1454  0.0124
10626SOL    HW233873   3.677   4.099   0.050 -0.1466  0.2591 -0.4579
10627SOL     OW33874   6.878   4.188   1.272 -0.7460  0.1865  0.2452
10627SOL    HW133875   6.812   4.255   1.293  0.5698  1.6041  0.0197
10627SOL    HW233876   6.872   4.126   1.345 -3.0279 -0.3271 -0.2866
10628SOL     OW33877   8.005   6.877   7.345  0.3996  0.3170  0.5592
10628SOL    HW133878   7.949   6.944   7.383  1.6047  0.7461  1.6540
10628SOL    HW233879   7.992   6.800   7.401  0.3905  0.2050  0.4054
10629SOL     OW33880   4.688   2.762   8.754 -0.1828  0.8743  0.0372
10629SOL    HW133881   4.711   2.738   8.664  1.1947 -0.6413  0.7404
10629SOL    HW233882   4.594   2.782   8.750 -0.4872 -0.6018 -1.4746
10630SOL     OW33883   2.356   2.461   0.297  0.3680 -0.4003 -0.5936
10630SOL    HW133884   2.284   2.518   0.323 -0.2693 -0.6292 -1.7863
10630SOL    HW233885   2.417   2.465   0.370  0.0993  1.3957 -0.4120
10631SOL     OW33886   8.320   2.184   5.698 -0.3100 -0.2548  0.7877
10631SOL    HW133887   8.287   2.155   5.612  0.1471  1.8230 -0.1595
10631SOL    HW233888   8.278   2.126   5.761 -0.2638 -2.1789 -0.8721
10632SOL     OW33889   8.469   3.649   2.344  0.1636 -0.7949 -0.5421
10632SOL    HW133890   8.527   3.611   2.278  0.4674  1.3930 -1.5901
10632SOL    HW233891   8.514   3.633   2.427  0.9508 -1.4638 -1.0814
10633SOL     OW33892   1.644   6.362   5.507  0.3665 -0.0409  0.2103
10633SOL    HW133893   1.721   6.396   5.461  0.3257  0.1908  0.3181
10633SOL    HW233894   1.571   6.384   5.450  0.3576 -0.1072  0.1949
10634SOL     OW33895   3.254   3.724   5.259  0.3583  0.4664 -0.0855
10634SOL    HW133896   3.252   3.782   5.182 -0.0569 -1.3579 -1.5281
10634SOL    HW233897   3.312   3.652   5.233 -0.2023 -0.4508  1.1043
10635SOL     OW33898   5.985   4.130   0.028 -0.3258 -0.1870  0.0877
10635SOL    HW133899   5.925   4.091  -0.036 -1.5834 -0.5963  1.4501
10635SOL    HW233900   6.023   4.054   0.073  1.5136  0.0549 -0.9637
10636SOL     OW33901   6.490   3.531   7.084 -0.0558 -0.2269  0.0849
10636SOL    HW133902   6.517   3.514   7.175 -0.4298 -0.1668  0.2110
10636SOL    HW233903   6.502   3.447   7.040 -0.5229 -0.4436  0.3591
10637SOL     OW33904   6.837   1.800   6.999 -0.0157  0.1630 -0.5294
10637SOL    HW133905   6.870   1.866   6.938  0.8480  1.6472  1.4421
10637SOL    HW233906   6.766   1.844   7.046 -1.0657 -1.1497 -0.8256
10638SOL     OW33907   0.017   1.450   6.350 -0.1895 -0.1809 -0.4397
10638SOL    HW133908   0.028   1.545   6.348 -0.4742 -0.1605 -1.3307
10638SOL    HW233909   0.101   1.415   6.320 -0.0721 -0.2150 -0.0762
10639SOL     OW33910   0.466   2.424   4.800  0.7968 -0.1209  0.0946
10639SOL    HW133911   0.504   2.367   4.866  1.8276 -1.1542 -1.3350
10639SOL    HW233912   0.447   2.367   4.726 -1.2764  0.8153 -0.1866
10640SOL     OW33913   1.320   0.539   4.958 -0.1233 -0.0449 -0.1105
10640SOL    HW133914   1.310   0.494   5.042  1.4922  0.3969  0.3460
10640SOL    HW233915   1.365   0.476   4.901 -0.8279 -0.1868 -0.5276
10641SOL     OW33916   2.052   7.928   7.872 -0.0617  0.4654  0.6704
10641SOL    HW133917   2.060   7.982   7.951  0.2428  0.0507  0.9330
10641SOL    HW233918   2.001   7.981   7.811  0.0840  0.9761  0.9845
10642SOL     OW33919   8.690   0.656   4.211 -0.0245  0.0637 -0.4933
10642SOL    HW133920   8.680   0.749   4.194 -1.1408  0.0881  0.1688
10642SOL    HW233921   8.636   0.640   4.289  2.3409 -0.6185  1.0868
10643SOL     OW33922   8.104   2.649   6.158 -0.4588 -0.5001 -0.3742
10643SOL    HW133923   8.138   2.666   6.246 -0.9682  0.5025 -0.3560
10643SOL    HW233924   8.172   2.682   6.099  0.3511 -2.0943 -0.4032
10644SOL     OW33925   3.948   2.324   8.076 -0.3875 -0.0197 -0.0707
10644SOL    HW133926   4.005   2.392   8.112 -0.6600 -0.4398  1.1892
10644SOL    HW233927   4.005   2.249   8.062 -0.2222  0.2363 -0.8299
10645SOL     OW33928   3.086   0.396   2.686  0.2589 -0.2008  0.3033
10645SOL    HW133929   2.991   0.401   2.698  0.1386 -0.1337 -0.6321
10645SOL    HW233930   3.098   0.350   2.603  1.0908 -1.8696  1.2682
10646SOL     OW33931   6.969   8.219   3.499  0.4426  0.2055  0.0864
10646SOL    HW133932   6.982   8.292   3.438 -1.9382  1.4078  0.9116
10646SOL    HW233933   6.905   8.163   3.456  0.9904 -0.5206  0.2029
10647SOL     OW33934   1.762   8.653   0.009 -0.1270  0.4207  0.3561
10647SOL    HW133935   1.799   8.577  -0.037  1.8979  0.7531  1.3403
10647SOL    HW233936   1.745   8.622   0.098  1.5575  1.3198  1.0241
10648SOL     OW33937   2.217   0.409   7.221  0.2188 -0.0160 -0.1879
10648SOL    HW133938   2.190   0.354   7.147  0.5910 -0.2943 -0.1227
10648SOL    HW233939   2.174   0.493   7.206  0.1468 -0.1289 -0.6223
10649SOL     OW33940   1.690   0.736   8.196 -0.3603 -0.5685 -0.1182
10649SOL    HW133941   1.661   0.674   8.129  1.6046 -0.1548 -1.4484
10649SOL    HW233942   1.741   0.683   8.257 -0.8817 -0.6873  0.2206
10650SOL     OW33943   3.200   8.676   4.304 -0.6927  0.9498 -0.2567
10650SOL    HW133944   3.267   8.719   4.251 -1.2350  2.0931 -0.0601
10650SOL    HW233945   3.148   8.749   4.338 -1.5702  0.1185  0.1972
10651SOL     OW33946   7.665   8.249   1.540  0.5854  0.0312 -0.6821
10651SOL    HW133947   7.648   8.339   1.570  0.9774  0.3633 -1.4148
10651SOL    HW233948   7.725   8.213   1.605 -1.2865 -0.4983  0.8648
10652SOL     OW33949   0.527   7.636   8.603  0.0673 -0.2734  0.7459
10652SOL    HW133950   0.520   7.642   8.698 -1.9036  0.1601  0.6355
10652SOL    HW233951   0.467   7.704   8.571  2.7809  1.5477 -0.8607
10653SOL     OW33952   6.640   8.886   2.391  0.2331 -0.2394 -0.1984
10653SOL    HW133953   6.602   8.805   2.357  0.8990 -0.2069 -1.0371
10653SOL    HW233954   6.566   8.945   2.399 -0.2546 -0.9077  0.3815
10654SOL     OW33955   7.585   4.478   5.028  0.8075  0.3397  0.5935
10654SOL    HW133956   7.521   4.448   4.963  0.0502  1.7040  0.6822
10654SOL    HW233957   7.669   4.444   4.996  0.2485 -0.2595 -0.2943
10655SOL     OW33958   3.025   8.796   8.074  0.3710  0.3599 -0.1899
10655SOL    HW133959   2.943   8.797   8.124 -0.1718  0.3506 -1.0619
10655SOL    HW233960   3.022   8.876   8.021  1.2721  0.7383  0.3070
10656SOL     OW33961   7.025   6.403   2.229 -0.4500  0.1378  0.2237
10656SOL    HW133962   7.001   6.487   2.268 -0.4310  0.0807  0.3577
10656SOL    HW233963   7.054   6.349   2.302  3.0376  1.1664 -0.2275
10657SOL     OW33964   4.576   0.011   1.066  0.4225  0.0526 -0.1318
10657SOL    HW133965   4.611   0.084   1.015 -1.5327  2.2370  1.3973
10657SOL    HW233966   4.503   0.050   1.115 -1.6765 -3.2992 -0.3216
10658SOL     OW33967   7.579   0.354   4.632  0.4328  0.0096 -0.4281
10658SOL    HW133968   7.640   0.331   4.562  0.3568 -1.8505  0.0582
10658SOL    HW233969   7.558   0.270   4.674  1.3625  1.1299  2.5711
10659SOL     OW33970   5.824   1.267   8.784 -0.7030  0.0381  0.2803
10659SOL    HW133971   5.861   1.184   8.813 -1.8305 -1.1636 -1.4947
10659SOL    HW233972   5.731   1.250   8.775 -0.6159  0.5876 -2.7888
10660SOL     OW33973   2.586   7.526   8.430 -0.4117  0.0023  0.1777
10660SOL    HW133974   2.646   7.460   8.394 -0.0943 -1.1371  2.6025
10660SOL    HW233975   2.639   7.573   8.494 -2.3087 -1.9107  3.3842
10661SOL     OW33976   0.716   1.388   5.345 -0.0191 -0.1005  0.4677
10661SOL    HW133977   0.700   1.294   5.337  0.9835 -0.3021  0.6979
10661SOL    HW233978   0.730   1.402   5.439  0.5473  0.1533  0.3479
10662SOL     OW33979   1.553   5.337   6.945  0.2824 -0.6271  0.5861
10662SOL    HW133980   1.624   5.327   6.881 -1.0967 -0.2891 -1.0489
10662SOL    HW233981   1.594   5.384   7.018  1.4714  0.6283 -0.8190
10663SOL     OW33982   0.234   2.781   8.037  0.3348  0.4072 -0.0098
10663SOL    HW133983   0.317   2.829   8.043  0.3851  0.2409  0.5831
10663SOL    HW233984   0.168   2.844   8.066  0.1038  0.9012 -1.4766
10664SOL     OW33985   6.763   7.787   5.831 -0.7055  0.7588  0.2317
10664SOL    HW133986   6.746   7.753   5.743  1.5581  1.5855 -0.5963
10664SOL    HW233987   6.787   7.879   5.816  2.5446  0.2073  1.3216
10665SOL     OW33988   8.818   2.024   7.524  0.2561 -0.0897  0.4779
10665SOL    HW133989   8.758   2.098   7.528  0.0453 -0.1930 -0.5828
10665SOL    HW233990   8.831   2.008   7.430 -2.0297 -3.2722  0.5403
10666SOL     OW33991   1.832   7.855   3.738  0.6262 -0.3717  0.2008
10666SOL    HW133992   1.915   7.815   3.765 -0.3058 -0.6179  2.9470
10666SOL    HW233993   1.782   7.863   3.819 -2.1308 -0.4028 -1.3956
10667SOL     OW33994   2.434   7.463   7.502  0.7142 -0.1215 -0.1287
10667SOL    HW133995   2.380   7.542   7.509  0.4695 -0.3377  0.4141
10667SOL    HW233996   2.418   7.415   7.583 -0.2692 -1.4459 -1.0651
10668SOL     OW33997   1.728   2.136   1.840  0.8151  0.0617 -0.3249
10668SOL    HW133998   1.766   2.092   1.916  0.8645 -1.5488 -1.2286
10668SOL    HW233999   1.665   2.073   1.804  1.2361  0.5056 -1.9546
10669SOL     OW34000   0.587   8.129   7.982 -0.5229  0.0824  0.0573
10669SOL    HW134001   0.648   8.056   7.974 -0.4912  0.2277 -1.1714
10669SOL    HW234002   0.643   8.206   7.997 -0.4142  0.1499 -0.6474
10670SOL     OW34003   4.771   6.594   4.870 -0.3595  0.0322  0.0653
10670SOL    HW134004   4.801   6.651   4.799  2.0112 -0.7845  0.3232
10670SOL    HW234005   4.720   6.526   4.825  0.1705  0.1428 -0.7322
10671SOL     OW34006   3.280   7.162   6.587 -0.4265  0.0807  0.2804
10671SOL    HW134007   3.197   7.179   6.543 -0.5487  1.1251  0.8877
10671SOL    HW234008   3.328   7.105   6.527 -1.1934  0.2532 -0.5058
10672SOL     OW34009   8.419   5.721   7.719  0.2212  0.2644  0.2564
10672SOL    HW134010   8.342   5.708   7.663  0.6921 -1.2108 -0.0868
10672SOL    HW234011   8.490   5.676   7.673  1.0237  0.6140  1.1396
10673SOL     OW34012   4.101   8.613   4.390 -0.2786 -0.4250  0.1936
10673SOL    HW134013   4.076   8.526   4.360 -0.6611  0.0921 -1.0837
10673SOL    HW234014   4.156   8.598   4.466  0.3932 -1.8189 -0.5385
10674SOL     OW34015   8.313   4.984   0.254 -0.4209  0.5882  0.3030
10674SOL    HW134016   8.324   4.896   0.290  0.1289  0.5647  0.0933
10674SOL    HW234017   8.284   4.969   0.163 -0.0302  0.6175  0.1726
10675SOL     OW34018   6.836   2.888   5.429  0.7134  0.3995  0.0265
10675SOL    HW134019   6.912   2.914   5.481  1.9314 -3.4797  0.4969
10675SOL    HW234020   6.872   2.863   5.344 -0.3070  0.1419 -0.3465
10676SOL     OW34021   4.187   6.433   5.172 -0.3694  0.0813 -0.0289
10676SOL    HW134022   4.121   6.396   5.114 -0.0932  0.7739 -0.7947
10676SOL    HW234023   4.229   6.502   5.121  0.3754  0.2184  0.7375
10677SOL     OW34024   0.818   7.454   5.778 -0.4774 -0.0701  0.0451
10677SOL    HW134025   0.833   7.377   5.725  2.1176  1.2371 -1.3386
10677SOL    HW234026   0.773   7.516   5.720 -1.9981 -0.2714  0.9514
10678SOL     OW34027   0.197   3.644   2.498 -0.3305 -0.4138 -0.4233
10678SOL    HW134028   0.241   3.728   2.492  1.9984 -1.4190  1.0352
10678SOL    HW234029   0.169   3.624   2.409 -0.1136  1.4730 -0.9390
10679SOL     OW34030   6.625   6.928   8.750  0.4459  0.3905 -0.2724
10679SOL    HW134031   6.632   7.022   8.735  1.4319  0.3155 -0.3151
10679SOL    HW234032   6.669   6.914   8.834 -0.0406  0.0186 -0.0750
10680SOL     OW34033   2.517   1.124   1.544  0.4506 -0.2788 -0.8236
10680SOL    HW134034   2.521   1.151   1.452 -1.9814  3.1600 -0.1254
10680SOL    HW234035   2.576   1.185   1.589 -1.3219  0.7584  0.2442
10681SOL     OW34036   0.123   5.172   0.387 -0.0139  0.4020  0.5242
10681SOL    HW134037   0.111   5.203   0.298  1.4007  2.2308  0.9102
10681SOL    HW234038   0.168   5.243   0.432  1.3233 -1.3294  2.1228
10682SOL     OW34039   0.804   4.788   3.705 -0.3134 -0.1502 -0.1322
10682SOL    HW134040   0.793   4.854   3.637  0.9657 -0.7512 -0.9552
10682SOL    HW234041   0.736   4.808   3.770 -0.7418  1.1921 -0.9723
10683SOL     OW34042   1.642   2.536   5.429 -0.5400 -0.4121  0.1734
10683SOL    HW134043   1.723   2.562   5.472  0.3285 -2.1230 -0.3705
10683SOL    HW234044   1.668   2.517   5.339 -1.9145  0.8660 -0.5467
10684SOL     OW34045   2.560   1.284   8.771 -0.4217  0.2600  0.7464
10684SOL    HW134046   2.625   1.353   8.759 -2.1978  1.7939 -0.5554
10684SOL    HW234047   2.579   1.221   8.701  1.0909 -0.5451  1.8265
10685SOL     OW34048   8.710   1.548   7.836  0.6243  0.4179 -0.2510
10685SOL    HW134049   8.699   1.620   7.774  1.9324  1.0021  0.1539
10685SOL    HW234050   8.676   1.471   7.790  0.5451  1.0397 -1.2605
10686SOL     OW34051   7.904   7.575   2.262 -0.1158 -0.1835  0.2982
10686SOL    HW134052   7.819   7.553   2.299 -0.9520 -1.7126 -2.2680
10686SOL    HW234053   7.885   7.598   2.171  1.9965  1.5683  0.2183
10687SOL     OW34054   7.058   3.186   1.139 -0.5160  0.0109 -0.1633
10687SOL    HW134055   7.025   3.274   1.120 -0.2999  0.2944  0.7377
10687SOL    HW234056   7.119   3.167   1.068 -0.2351  0.7697 -0.1273
10688SOL     OW34057   2.219   1.938   8.040 -0.1312 -0.9117 -0.3601
10688SOL    HW134058   2.295   1.886   8.015 -0.1808 -0.7833 -0.7785
10688SOL    HW234059   2.243   2.028   8.021 -0.6962 -0.9447 -1.3095
10689SOL     OW34060   4.370   6.896   1.841  0.4565 -0.1498 -0.4417
10689SOL    HW134061   4.443   6.956   1.827  0.8903 -0.6804 -0.4567
10689SOL    HW234062   4.411   6.812   1.861 -0.1501 -0.4567 -0.4693
10690SOL     OW34063   2.740   8.473   4.967  0.3252  0.2690 -0.3854
10690SOL    HW134064   2.670   8.447   5.027  0.9188  1.6148  0.9480
10690SOL    HW234065   2.702   8.544   4.915  0.3301  0.1963 -0.4900
10691SOL     OW34066   3.397   8.496   8.283  0.1536 -0.3173  0.0739
10691SOL    HW134067   3.342   8.569   8.254  1.6603 -0.5876 -4.2576
10691SOL    HW234068   3.479   8.538   8.312  0.1052 -0.1898  0.0267
10692SOL     OW34069   1.967   1.975   8.538  0.0494 -0.2450  0.1781
10692SOL    HW134070   1.929   1.915   8.602 -1.5467  0.0439 -0.4712
10692SOL    HW234071   2.032   1.921   8.492  0.8982 -0.5724  1.7011
10693SOL     OW34072   4.684   8.275   1.291 -0.2003  0.5931 -0.2282
10693SOL    HW134073   4.592   8.262   1.315 -0.2023 -0.3289 -0.6844
10693SOL    HW234074   4.730   8.270   1.375 -0.5633  1.0375  0.0018
10694SOL     OW34075   2.938   0.128   4.083  0.4200 -0.0311  0.0912
10694SOL    HW134076   2.995   0.055   4.060 -0.6471 -1.3619  1.4353
10694SOL    HW234077   2.851   0.088   4.094 -0.1657  1.4113  0.9903
10695SOL     OW34078   0.481   8.180   2.030  0.4727  0.4769  0.2126
10695SOL    HW134079   0.514   8.168   2.119 -2.1105  1.2128  1.3786
10695SOL    HW234080   0.386   8.190   2.041 -0.1275 -0.7369 -2.7689
10696SOL     OW34081   3.138   3.555   6.851 -0.4518 -0.0447  0.5986
10696SOL    HW134082   3.190   3.621   6.805  0.2139  1.1308  2.8953
10696SOL    HW234083   3.050   3.564   6.815 -0.5273  2.5772  1.2545
10697SOL     OW34084   2.131   7.173   4.780 -0.0376  0.1708 -0.3145
10697SOL    HW134085   2.214   7.189   4.736  0.5662  0.1989  0.7976
10697SOL    HW234086   2.083   7.255   4.771  0.3071  0.3604 -0.4189
10698SOL     OW34087   4.649   6.530   5.343  0.4942 -0.2982 -0.1254
10698SOL    HW134088   4.630   6.580   5.422 -0.4453  0.4678 -0.8178
10698SOL    HW234089   4.613   6.443   5.361 -0.4178  0.0958 -0.0011
10699SOL     OW34090   2.376   6.540   5.526 -0.0896 -0.3309  0.2197
10699SOL    HW134091   2.426   6.579   5.598 -0.9583  2.3261 -0.5168
10699SOL    HW234092   2.292   6.517   5.565 -0.0373 -0.2666  0.3715
10700SOL     OW34093   5.119   0.206   8.229 -0.1203  0.2940 -0.0581
10700SOL    HW134094   5.176   0.179   8.302 -1.0083  1.7863  1.2283
10700SOL    HW234095   5.072   0.126   8.206  2.0460 -0.8632 -0.8100
10701SOL     OW34096   0.419   7.890   2.807 -0.0290  0.2339  0.1797
10701SOL    HW134097   0.386   7.979   2.796  0.7290  0.5703  0.5889
10701SOL    HW234098   0.484   7.897   2.876  0.7433 -0.4538 -0.4618
10702SOL     OW34099   8.630   6.278   4.127 -0.3995 -0.1087 -0.2128
10702SOL    HW134100   8.543   6.318   4.127  0.1422  1.2017  1.4569
10702SOL    HW234101   8.619   6.196   4.078 -2.2666  0.6026 -1.0805
10703SOL     OW34102   3.916   0.303   0.259 -0.2937  0.2063  0.3188
10703SOL    HW134103   3.898   0.276   0.169  1.0976  1.4368 -0.3559
10703SOL    HW234104   3.933   0.221   0.306 -0.7757 -0.4270 -0.5856
10704SOL     OW34105   6.238   4.932   1.479 -0.1435 -0.0680 -0.2236
10704SOL    HW134106   6.239   5.024   1.505 -2.2559 -0.2899  0.8330
10704SOL    HW234107   6.185   4.929   1.400  0.2478 -0.3353 -0.4818
10705SOL     OW34108   2.141   4.986   6.377 -0.0110 -0.3916 -0.1268
10705SOL    HW134109   2.047   4.996   6.396 -0.2909 -1.2316 -0.9883
10705SOL    HW234110   2.144   4.923   6.305  1.3004 -1.8623  1.1452
10706SOL     OW34111   6.011   8.717   4.222 -0.2765  0.3227  0.6536
10706SOL    HW134112   6.029   8.738   4.314 -0.8573 -2.6877  1.5585
10706SOL    HW234113   6.097   8.701   4.184 -0.1560 -2.5535  1.8834
10707SOL     OW34114   3.694   8.734   1.497  0.2019  0.6355  0.2106
10707SOL    HW134115   3.740   8.730   1.414  0.3765 -2.3138  0.3450
10707SOL    HW234116   3.764   8.732   1.563  0.1733  4.5806  0.5990
10708SOL     OW34117   4.029   2.865   7.206  0.2535 -0.0718  0.5740
10708SOL    HW134118   3.986   2.814   7.275  0.6837  0.8183  1.5322
10708SOL    HW234119   4.087   2.802   7.162  0.9227 -0.3900  1.8594
10709SOL     OW34120   7.293   2.244   7.653 -0.2926  0.1088 -0.3192
10709SOL    HW134121   7.335   2.158   7.646  1.3077  0.8526 -0.5168
10709SOL    HW234122   7.264   2.263   7.564  0.0730  0.0942 -0.4469
10710SOL     OW34123   3.720   2.952   5.173  0.2814 -0.3754  0.2001
10710SOL    HW134124   3.781   3.025   5.163 -0.6934  0.5008  0.4479
10710SOL    HW234125   3.774   2.879   5.202  1.3042  0.1992 -0.2031
10711SOL     OW34126   2.060   1.507   1.755  0.0760 -0.0248  0.1438
10711SOL    HW134127   2.094   1.597   1.757 -0.5079  0.2135 -0.5169
10711SOL    HW234128   2.131   1.456   1.716 -0.4045  0.5322 -1.5566
10712SOL     OW34129   4.500   7.293   4.845  0.2487 -0.8712 -0.3138
10712SOL    HW134130   4.416   7.264   4.880  0.2603 -0.1576  0.3478
10712SOL    HW234131   4.559   7.220   4.862  0.3762 -0.3762  1.6857
10713SOL     OW34132   0.408   3.376   2.965  0.5625 -0.5688  0.4789
10713SOL    HW134133   0.346   3.393   3.036  0.9141  1.6028  0.3217
10713SOL    HW234134   0.401   3.452   2.907  2.0684 -1.1280 -0.5185
10714SOL     OW34135   2.358   8.343   8.657 -0.1277  0.4372 -0.5290
10714SOL    HW134136   2.382   8.419   8.711 -0.6032  0.2923 -0.1003
10714SOL    HW234137   2.441   8.310   8.622  0.2152  0.3864  0.3107
10715SOL     OW34138   3.034   3.470   8.552 -0.2521  0.6242  0.3693
10715SOL    HW134139   3.110   3.433   8.508  0.8808  2.9402  0.2327
10715SOL    HW234140   3.068   3.502   8.636 -1.7154 -0.8674  1.6018
10716SOL     OW34141   7.183   2.733   2.197 -0.1371 -0.4611 -0.0465
10716SOL    HW134142   7.160   2.643   2.221 -1.9973 -0.3064 -1.0393
10716SOL    HW234143   7.191   2.731   2.101 -1.0787  0.5781 -0.1684
10717SOL     OW34144   1.243   6.820   6.358  0.0483 -0.3026  0.0401
10717SOL    HW134145   1.158   6.777   6.354 -0.3534  0.4838  0.0011
10717SOL    HW234146   1.287   6.792   6.278 -0.5001 -0.0490 -0.3560
10718SOL     OW34147   6.474   8.114   2.952 -0.3489 -0.6425  0.0047
10718SOL    HW134148   6.445   8.051   3.018 -2.5660 -0.1157 -0.3927
10718SOL    HW234149   6.491   8.061   2.874 -1.6190 -0.8367 -0.1528
10719SOL     OW34150   8.500   1.846   6.743  0.4423  0.1229 -0.1963
10719SOL    HW134151   8.449   1.776   6.783  0.1741 -0.3787 -1.3642
10719SOL    HW234152   8.553   1.881   6.815  0.3138 -1.0259  0.4942
10720SOL     OW34153   1.271   0.574   3.122  0.2235 -0.1726 -0.2909
10720SOL    HW134154   1.201   0.548   3.063  0.8717  0.1569 -1.2379
10720SOL    HW234155   1.259   0.520   3.200 -2.4448  1.4847  0.5471
10721SOL     OW34156   6.897   3.078   8.804  0.4860 -0.2269 -0.1037
10721SOL    HW134157   6.824   3.139   8.812  0.7560 -0.0494  1.1639
10721SOL    HW234158   6.930   3.091   8.715 -2.3940 -1.8986 -1.5806
10722SOL     OW34159   0.819   7.477   3.952  0.9246  0.0461  0.6099
10722SOL    HW134160   0.767   7.546   3.993 -1.7250 -1.4824  0.0719
10722SOL    HW234161   0.909   7.499   3.973  0.0758  2.7006  1.8993
10723SOL     OW34162   7.648   2.193   8.305 -0.0944 -0.7430 -0.4179
10723SOL    HW134163   7.707   2.265   8.329  0.0948 -1.5724  1.8157
10723SOL    HW234164   7.596   2.228   8.233  1.3496  0.9234 -0.7204
10724SOL     OW34165   6.056   4.591   6.706  0.2122 -0.3987 -0.1352
10724SOL    HW134166   6.009   4.630   6.780 -1.8822 -0.5460 -1.2916
10724SOL    HW234167   5.986   4.561   6.647  1.7771 -2.3329 -1.1186
10725SOL     OW34168   8.621   8.365   5.559  0.1663 -0.2731 -0.0658
10725SOL    HW134169   8.674   8.435   5.598 -2.1714  1.3757  0.3728
10725SOL    HW234170   8.614   8.389   5.467 -2.3695  1.4058  0.4518
10726SOL     OW34171   2.284   2.245   1.553  0.0601  0.6040 -0.1822
10726SOL    HW134172   2.202   2.294   1.558 -0.9743 -1.0033 -0.8247
10726SOL    HW234173   2.265   2.162   1.596  2.0010  0.9737  1.5434
10727SOL     OW34174   2.216   4.908   3.538  0.3503 -0.2592 -0.1723
10727SOL    HW134175   2.144   4.938   3.483  1.4293  0.6157 -1.1616
10727SOL    HW234176   2.183   4.828   3.579 -0.8607 -0.3526 -1.2628
10728SOL     OW34177   2.061   4.207   1.809  0.1257  0.0447  0.9898
10728SOL    HW134178   2.111   4.192   1.729 -3.1424 -0.8361 -1.0875
10728SOL    HW234179   2.122   4.184   1.880  1.8675 -3.6803 -1.3586
10729SOL     OW34180   3.094   4.413   8.373 -0.4981  0.1028 -0.8285
10729SOL    HW134181   3.036   4.378   8.442 -0.1566 -0.3572 -0.7712
10729SOL    HW234182   3.045   4.402   8.292 -0.4552 -0.3725 -0.7906
10730SOL     OW34183   3.998   5.990   6.636 -0.0482 -0.0685  0.4596
10730SOL    HW134184   3.960   6.073   6.664  0.6762  0.4119  0.0657
10730SOL    HW234185   3.923   5.930   6.631 -0.4262  0.2689  1.7548
10731SOL     OW34186   4.181   4.743   3.420  0.1252 -0.5041  0.0346
10731SOL    HW134187   4.273   4.719   3.435  0.5587  0.4665 -0.9184
10731SOL    HW234188   4.146   4.758   3.508  1.4923  1.2516  0.3304
10732SOL     OW34189   2.912   7.323   0.067 -0.1538  0.2693  0.0963
10732SOL    HW134190   2.940   7.327  -0.024 -0.7150  0.9482 -0.0588
10732SOL    HW234191   2.990   7.345   0.118  0.1600 -0.1109 -0.2215
10733SOL     OW34192   5.294   3.999   1.500 -0.0054  0.1277  0.4027
10733SOL    HW134193   5.206   3.973   1.528  0.3088 -0.8537  0.5288
10733SOL    HW234194   5.349   3.983   1.577  0.2138  1.2261  0.4964
10734SOL     OW34195   5.898   4.151   8.271 -0.4632  0.4397  0.0846
10734SOL    HW134196   5.993   4.161   8.265 -0.0944 -1.9364  1.0019
10734SOL    HW234197   5.863   4.223   8.219  1.8380  0.9882 -0.8111
10735SOL     OW34198   6.599   1.724   6.535  0.2175  0.9843 -0.4291
10735SOL    HW134199   6.560   1.776   6.605  0.1264  1.2498 -0.6773
10735SOL    HW234200   6.584   1.775   6.455 -4.7721 -1.7384 -1.6477
10736SOL     OW34201   5.398   8.798   6.761  0.8308  0.0790  0.2517
10736SOL    HW134202   5.328   8.860   6.741 -0.2045 -1.1627 -0.1212
10736SOL    HW234203   5.369   8.757   6.843 -0.4991 -2.6213 -1.4478
10737SOL     OW34204   0.467   5.739   8.166  0.1338 -0.0207 -0.3025
10737SOL    HW134205   0.451   5.749   8.072 -0.9619  0.9359 -0.0412
10737SOL    HW234206   0.382   5.717   8.203  0.4947 -0.1014  0.4987
10738SOL     OW34207   8.739   7.088   6.309 -0.9820 -0.0038  0.7756
10738SOL    HW134208   8.806   7.042   6.360 -0.2176  0.1011 -0.1064
10738SOL    HW234209   8.692   7.018   6.263  1.2025  0.0756 -1.8175
10739SOL     OW34210   8.035   8.646   4.193  0.7785  0.2584 -0.0142
10739SOL    HW134211   8.101   8.586   4.228 -0.0507  0.1529  1.4908
10739SOL    HW234212   8.060   8.659   4.102  1.4992 -1.6408 -0.1344
10740SOL     OW34213   8.051   0.326   5.669  0.2302 -0.2852  0.0068
10740SOL    HW134214   8.005   0.408   5.687  0.2424 -0.1142 -0.7467
10740SOL    HW234215   7.982   0.265   5.640  0.1659 -0.6542  0.8919
10741SOL     OW34216   0.337   6.067   7.578 -0.1029  0.1992  0.0798
10741SOL    HW134217   0.367   5.984   7.541  1.1737  0.9425 -0.6439
10741SOL    HW234218   0.414   6.124   7.576 -0.3228  0.7226  2.6937
10742SOL     OW34219   6.036   3.772   0.291 -0.3464 -0.2063  0.1168
10742SOL    HW134220   6.076   3.686   0.278  1.3480  0.2647  1.7857
10742SOL    HW234221   6.093   3.832   0.244 -0.9853  0.1294 -0.2426
10743SOL     OW34222   3.842   7.944   0.509 -0.3713 -0.0707 -0.2601
10743SOL    HW134223   3.780   7.914   0.576  0.4480 -0.1004  0.5038
10743SOL    HW234224   3.793   7.941   0.427 -1.6653  0.7516  0.4440
10744SOL     OW34225   8.036   3.009   4.972 -0.3643 -0.0260  0.5014
10744SOL    HW134226   8.058   3.025   5.064  1.4790  0.5264  0.0215
10744SOL    HW234227   8.094   2.937   4.946  1.2032  1.6454 -0.9072
10745SOL     OW34228   0.864   2.078   8.806  0.0064  0.5232 -0.6903
10745SOL    HW134229   0.888   2.004   8.862 -2.2876 -1.2755 -1.9159
10745SOL    HW234230   0.847   2.149   8.867  1.7591 -0.0744  0.5744
10746SOL     OW34231   0.405   1.725   2.560 -0.2411  0.2897 -0.4247
10746SOL    HW134232   0.451   1.644   2.582 -1.5745  0.1002  2.0587
10746SOL    HW234233   0.337   1.697   2.497  1.2135  0.0978 -1.9749
10747SOL     OW34234   7.335   0.038   7.503  0.6527  0.0328  0.2536
10747SOL    HW134235   7.370  -0.043   7.466  1.5243  0.5332 -0.0466
10747SOL    HW234236   7.240   0.029   7.496  0.7332 -1.0222  0.3611
10748SOL     OW34237   2.730   6.696   7.842  0.0463 -0.0434 -0.3229
10748SOL    HW134238   2.677   6.618   7.855  0.2730 -0.3089 -0.9906
10748SOL    HW234239   2.675   6.768   7.873 -0.2329 -0.4407  0.1192
10749SOL     OW34240   7.471   1.065   6.495 -0.3012 -0.1948  0.0170
10749SOL    HW134241   7.427   1.121   6.430  0.4487  1.8879  1.2071
10749SOL    HW234242   7.534   1.123   6.537  2.3098 -2.5792 -0.3164
10750SOL     OW34243   8.329   1.503   5.712  0.6607  0.6153  0.1830
10750SOL    HW134244   8.265   1.572   5.729 -1.1096 -0.6218 -1.1304
10750SOL    HW234245   8.329   1.451   5.792  1.4355  1.6215  0.8800
10751SOL     OW34246   4.054   7.325   6.727 -0.3329  0.0900  0.3326
10751SOL    HW134247   3.963   7.302   6.710 -0.1688  0.4002 -1.1428
10751SOL    HW234248   4.102   7.285   6.654  1.3079 -3.6491  3.1472
10752SOL     OW34249   5.968   4.672   7.909  0.1157  0.1620 -0.4416
10752SOL    HW134250   5.924   4.734   7.967 -0.3713  1.4228 -2.0722
10752SOL    HW234251   5.903   4.603   7.895  0.7186 -0.8804  1.5108
10753SOL     OW34252   5.956   2.125   5.924  0.4139 -0.7684  0.7661
10753SOL    HW134253   5.981   2.051   5.869  0.3640 -1.3054  1.4571
10753SOL    HW234254   5.872   2.154   5.888  0.8814 -0.4278 -0.1001
10754SOL     OW34255   3.211   2.092   7.748  0.6501  0.1145 -0.1503
10754SOL    HW134256   3.153   2.015   7.745  0.8210  0.0034 -0.6156
10754SOL    HW234257   3.274   2.077   7.678 -0.0196  1.2330 -1.0317
10755SOL     OW34258   0.333   3.826   5.943 -0.0685  0.4593  0.0642
10755SOL    HW134259   0.248   3.782   5.946 -0.1265  0.4817 -1.0961
10755SOL    HW234260   0.313   3.918   5.958 -0.5972  0.8744 -2.6821
10756SOL     OW34261   3.607   7.948   6.019 -0.5813 -0.3665 -0.2293
10756SOL    HW134262   3.681   7.924   6.074 -1.0920  0.4907  0.8579
10756SOL    HW234263   3.557   7.867   6.009  0.6309 -1.0277 -1.2225
10757SOL     OW34264   3.272   7.450   8.560 -0.1215 -0.1081  0.3000
10757SOL    HW134265   3.232   7.537   8.553  2.4016  1.3149  1.8980
10757SOL    HW234266   3.366   7.467   8.552  0.4876 -2.6132  1.4422
10758SOL     OW34267   2.528   4.828   5.934 -0.0011  0.0561 -0.3486
10758SOL    HW134268   2.532   4.733   5.933  1.4636  0.0990 -1.8943
10758SOL    HW234269   2.483   4.849   6.016 -0.0268 -1.9381  0.1930
10759SOL     OW34270   5.197   6.553   0.650  0.5551 -0.1318  0.6023
10759SOL    HW134271   5.267   6.575   0.588  0.5548  1.5205  1.1444
10759SOL    HW234272   5.119   6.544   0.596  0.6352  0.8778  0.3010
10760SOL     OW34273   6.009   5.344   4.629 -0.3460 -0.7594 -0.1182
10760SOL    HW134274   5.935   5.287   4.651 -2.8300  1.6284 -1.6681
10760SOL    HW234275   6.022   5.396   4.708  1.5022 -2.8433  1.0695
10761SOL     OW34276   7.810   5.955   5.763 -0.4098  0.4096 -0.1166
10761SOL    HW134277   7.775   5.917   5.683  1.3563  0.2529 -0.8504
10761SOL    HW234278   7.825   6.047   5.742 -1.4090  0.7521  0.5635
10762SOL     OW34279   3.268   2.728   5.991  0.0495 -0.7026  0.2443
10762SOL    HW134280   3.254   2.752   5.899 -1.9542 -0.1735  0.6325
10762SOL    HW234281   3.193   2.673   6.013  0.5678 -0.9155  1.5381
10763SOL     OW34282   1.177   6.297   7.167  0.1015 -0.2611 -0.3210
10763SOL    HW134283   1.200   6.384   7.135 -0.2222 -0.4581 -1.1086
10763SOL    HW234284   1.098   6.312   7.220 -0.7679 -0.2464 -1.5744
10764SOL     OW34285   8.366   0.537   5.935 -0.2152  0.1173  0.1066
10764SOL    HW134286   8.376   0.472   5.866 -1.6331  0.9902 -0.9802
10764SOL    HW234287   8.440   0.522   5.993  0.7980 -0.9173 -1.3856
10765SOL     OW34288   5.699   7.710   4.129  0.5575  0.0846 -0.0453
10765SOL    HW134289   5.749   7.640   4.170  2.0245  1.8947  1.4555
10765SOL    HW234290   5.624   7.723   4.188 -1.6282 -2.3174 -2.0512
10766SOL     OW34291   7.458   3.063   4.118  0.6578  0.0607 -0.0589
10766SOL    HW134292   7.437   3.109   4.199  1.0976  0.2404 -0.0441
10766SOL    HW234293   7.459   2.970   4.142  0.7256  0.1106  0.1281
10767SOL     OW34294   0.444   5.326   5.057  0.4639 -0.1433 -0.5967
10767SOL    HW134295   0.512   5.337   4.991  0.4070 -2.3735 -1.1072
10767SOL    HW234296   0.490   5.299   5.136  0.2996 -0.0190 -0.4547
10768SOL     OW34297   0.894   1.906   3.530 -0.1534  0.0252 -0.0578
10768SOL    HW134298   0.843   1.854   3.469  0.3625 -0.9070  0.2935
10768SOL    HW234299   0.844   1.988   3.539 -1.8289 -1.0089  0.6138
10769SOL     OW34300   4.832   1.963   1.221  0.3656 -0.6119  0.1678
10769SOL    HW134301   4.894   1.898   1.188  2.6873  0.9143  1.2925
10769SOL    HW234302   4.859   1.979   1.311  1.1946  3.2735 -0.5808
10770SOL     OW34303   6.430   0.316   2.177 -0.0585  0.5795  0.4563
10770SOL    HW134304   6.350   0.334   2.128 -1.0711  1.1174  2.2033
10770SOL    HW234305   6.413   0.232   2.219  0.8911  0.0062 -0.2673
10771SOL     OW34306   4.516   0.092   8.698 -0.1719 -0.1607 -0.2681
10771SOL    HW134307   4.578   0.164   8.694 -0.8972  0.5068  0.3582
10771SOL    HW234308   4.430   0.132   8.683 -0.8976 -0.4412  2.5728
10772SOL     OW34309   2.319   5.076   7.555 -0.1902  0.3127 -0.2916
10772SOL    HW134310   2.321   5.044   7.645 -0.4414  0.5361 -0.2067
10772SOL    HW234311   2.260   5.150   7.557 -1.4231 -0.6123 -0.9310
10773SOL     OW34312   8.852   4.120   1.660  0.2688 -0.7331  0.0449
10773SOL    HW134313   8.785   4.136   1.727 -1.4910 -0.0266 -1.7830
10773SOL    HW234314   8.885   4.033   1.680 -1.1018 -1.0473  1.0928
10774SOL     OW34315   6.701   2.044   4.785  0.1625  0.1129 -0.4660
10774SOL    HW134316   6.746   2.103   4.724  1.5505 -0.2425  0.1672
10774SOL    HW234317   6.696   2.094   4.866  0.9322 -0.4490 -0.0581
10775SOL     OW34318   3.538   6.501   8.595 -0.7024  0.1986 -0.1596
10775SOL    HW134319   3.574   6.416   8.569 -0.6673  0.0546  0.3563
10775SOL    HW234320   3.459   6.480   8.643 -0.4998  0.4431  0.2826
10776SOL     OW34321   1.042   8.450   7.523 -0.3189  0.4072  0.1571
10776SOL    HW134322   1.108   8.509   7.487 -0.8461  1.3596  0.7087
10776SOL    HW234323   1.062   8.447   7.617 -0.7568  0.3106  0.2483
10777SOL     OW34324   5.498   3.503   0.828 -0.4831 -0.0663 -0.3294
10777SOL    HW134325   5.503   3.597   0.811 -0.6933 -0.0290 -0.2007
10777SOL    HW234326   5.568   3.464   0.776  1.8418  0.4922  2.1608
10778SOL     OW34327   0.645   0.538   7.642 -0.0859 -0.1494 -0.3162
10778SOL    HW134328   0.674   0.627   7.619  1.1625 -0.1405  1.1655
10778SOL    HW234329   0.581   0.516   7.574 -1.2243  2.2774 -0.1753
10779SOL     OW34330   8.177   7.507   4.364 -0.1648 -0.2050  1.0967
10779SOL    HW134331   8.213   7.570   4.302 -0.8644  0.0166  0.9058
10779SOL    HW234332   8.239   7.507   4.436  1.0909 -1.0516  0.0672
10780SOL     OW34333   1.676   3.488   5.843  0.3503  0.0065 -0.1368
10780SOL    HW134334   1.757   3.438   5.832  0.2836  0.2067 -1.9078
10780SOL    HW234335   1.606   3.423   5.835  0.3101  0.0685 -0.3020
10781SOL     OW34336   0.948   8.342   1.089 -0.8295  0.1546  0.6616
10781SOL    HW134337   1.004   8.303   1.022 -1.3667  1.1188 -0.3879
10781SOL    HW234338   0.881   8.277   1.106 -1.1020  0.1785 -0.2844
10782SOL     OW34339   3.123   8.803   3.176 -0.1276 -0.0780 -0.3960
10782SOL    HW134340   3.078   8.835   3.097 -1.6799  0.5057  0.6794
10782SOL    HW234341   3.191   8.744   3.142  0.4616  1.5657 -2.2554
10783SOL     OW34342   3.075   0.211   5.110  0.2872  0.0683 -0.3094
10783SOL    HW134343   3.161   0.219   5.152  0.2854  0.0386 -0.3005
10783SOL    HW234344   3.074   0.281   5.045  0.9185 -0.8850 -1.3752
10784SOL     OW34345   2.280   4.907   2.610 -0.3003  0.2769  0.4892
10784SOL    HW134346   2.281   4.865   2.696 -0.0330 -0.0410  0.3317
10784SOL    HW234347   2.315   4.995   2.627  3.0344 -0.8456  0.1746
10785SOL     OW34348   7.713   4.445   6.440  0.2818 -0.1625 -0.2515
10785SOL    HW134349   7.630   4.476   6.403  1.0630  2.3534 -0.0812
10785SOL    HW234350   7.767   4.424   6.363  0.3831  0.7599 -0.4383
10786SOL     OW34351   6.457   8.817   8.520 -0.1215 -0.1334 -0.2650
10786SOL    HW134352   6.443   8.826   8.426 -0.3350 -0.6967 -0.2907
10786SOL    HW234353   6.530   8.756   8.527 -1.3112 -1.5784 -0.0463
10787SOL     OW34354   6.050   3.508   0.438  0.4229 -0.9560  0.4436
10787SOL    HW134355   5.979   3.552   0.390  0.6724 -2.4686 -1.4575
10787SOL    HW234356   6.071   3.568   0.510  0.9825  2.2168 -2.1006
10788SOL     OW34357   3.278   8.065   8.415  0.5265 -0.0903  0.0957
10788SOL    HW134358   3.203   8.044   8.361  1.2414  0.0912 -0.9869
10788SOL    HW234359   3.284   7.993   8.478 -1.0178  0.3055  0.7337
10789SOL     OW34360   4.292   3.100   3.623  0.0766  0.1574  0.7713
10789SOL    HW134361   4.378   3.109   3.664  0.3674 -0.2568  0.2690
10789SOL    HW234362   4.308   3.042   3.549 -1.0172 -1.6041  1.8406
10790SOL     OW34363   1.208   7.387   0.784 -0.0430 -0.2144 -0.1814
10790SOL    HW134364   1.259   7.364   0.706 -0.3133 -2.4850  0.2280
10790SOL    HW234365   1.219   7.482   0.793  0.2974  0.0717 -2.7425
10791SOL     OW34366   7.771   7.021   3.400  0.1987 -0.5367  0.3384
10791SOL    HW134367   7.845   6.982   3.448  1.2554 -0.1374 -0.9160
10791SOL    HW234368   7.781   7.115   3.413  0.2327 -0.4523 -0.2897
10792SOL     OW34369   6.261   1.241   2.131  0.3339 -0.3149  0.1987
10792SOL    HW134370   6.294   1.223   2.219  0.6719  1.1140  0.3946
10792SOL    HW234371   6.181   1.189   2.124 -0.1361  0.1535  1.6471
10793SOL     OW34372   0.102   2.758   6.398 -0.4207 -0.0751  0.0733
10793SOL    HW134373   0.147   2.734   6.316 -2.0241  1.4946 -1.3578
10793SOL    HW234374   0.016   2.716   6.391  0.5667 -2.9056  2.6934
10794SOL     OW34375   0.052   0.982   8.680 -0.6539  0.2860 -0.2391
10794SOL    HW134376   0.109   1.028   8.619 -0.1801  0.3842  0.2647
10794SOL    HW234377  -0.010   1.049   8.710 -0.5658  0.3647 -0.2318
10795SOL     OW34378   2.736   6.146   5.821 -0.3323  0.6630  0.4315
10795SOL    HW134379   2.783   6.188   5.893  0.0817 -0.7184  1.0053
10795SOL    HW234380   2.657   6.111   5.862 -0.4103  0.4263  0.0774
10796SOL     OW34381   5.271   2.519   7.575 -0.2219  0.0810  0.2073
10796SOL    HW134382   5.311   2.435   7.551  0.4053  0.2134  0.7611
10796SOL    HW234383   5.258   2.564   7.491  0.4715 -0.1169 -0.0116
10797SOL     OW34384   6.027   8.561   3.800  0.4211 -0.1976 -0.2157
10797SOL    HW134385   5.934   8.539   3.792  0.5161 -0.0710 -2.2240
10797SOL    HW234386   6.072   8.489   3.755  1.2623  0.0083  0.2833
10798SOL     OW34387   1.563   7.213   7.649 -0.1297 -0.4676  0.2939
10798SOL    HW134388   1.656   7.209   7.673  0.6357  2.4551 -1.5874
10798SOL    HW234389   1.524   7.271   7.715  0.4280  1.7903 -1.2386
10799SOL     OW34390   0.194   5.338   1.924  0.5150 -0.1955  0.2412
10799SOL    HW134391   0.283   5.361   1.898  1.7132 -2.7914  1.5718
10799SOL    HW234392   0.193   5.353   2.019 -0.4498 -0.2739  0.2511
10800SOL     OW34393   3.863   8.122   5.035  0.2611  0.4254 -0.1522
10800SOL    HW134394   3.802   8.185   4.997 -0.0144  0.6140  0.6046
10800SOL    HW234395   3.819   8.037   5.025  1.0010  0.1948 -1.9700
10801SOL     OW34396   1.521   8.730   2.983 -0.0549 -0.3044 -0.2115
10801SOL    HW134397   1.474   8.810   3.006  1.9194  1.2222 -1.1167
10801SOL    HW234398   1.472   8.694   2.909 -0.0016  1.0870 -0.9568
10802SOL     OW34399   1.456   5.313   5.252  0.4316  0.1159  0.0361
10802SOL    HW134400   1.451   5.226   5.293  0.5222 -0.1199 -0.4456
10802SOL    HW234401   1.542   5.346   5.277 -0.4708  1.0512  2.1373
10803SOL     OW34402   4.171   7.060   0.758 -0.5590  0.0724 -0.1303
10803SOL    HW134403   4.145   7.076   0.848 -2.1893 -0.7360 -0.4156
10803SOL    HW234404   4.123   7.126   0.707 -0.5968 -0.2367 -0.5006
10804SOL     OW34405   1.655   6.828   2.168  0.1884 -0.0840 -0.4317
10804SOL    HW134406   1.592   6.844   2.238  0.5545 -0.3442 -0.0348
10804SOL    HW234407   1.602   6.800   2.094 -0.0293 -2.8479  0.6443
10805SOL     OW34408   7.937   2.219   2.258 -0.1343 -0.2928  0.3665
10805SOL    HW134409   7.921   2.220   2.164 -1.0062  2.3644  0.4528
10805SOL    HW234410   8.011   2.279   2.271 -0.2558 -0.3467  1.3969
10806SOL     OW34411   3.025   8.619   6.183 -0.2234 -0.4923  0.1643
10806SOL    HW134412   3.072   8.691   6.224  0.8894 -0.9300 -0.2984
10806SOL    HW234413   3.091   8.551   6.171 -0.7146 -0.7142 -1.5076
10807SOL     OW34414   8.307   0.401   8.447  0.0568  0.4788  0.0974
10807SOL    HW134415   8.254   0.459   8.392  1.6465  1.7625 -0.1385
10807SOL    HW234416   8.251   0.383   8.523 -1.5384 -0.0076 -1.1327
10808SOL     OW34417   2.631   6.277   7.066 -0.2187 -0.4172  0.3343
10808SOL    HW134418   2.551   6.329   7.072  0.4624  0.5434  1.8938
10808SOL    HW234419   2.606   6.190   7.098 -0.5640 -0.0083  1.2081
10809SOL     OW34420   0.710   3.183   3.771  1.0191 -0.6801  0.5544
10809SOL    HW134421   0.654   3.128   3.826  0.7035 -2.6896 -1.6224
10809SOL    HW234422   0.778   3.123   3.739  1.0161  0.3142 -1.4341
10810SOL     OW34423   6.570   2.476   2.974 -0.1141 -0.4358 -0.0204
10810SOL    HW134424   6.590   2.564   3.006  1.2311 -1.1263  1.0877
10810SOL    HW234425   6.634   2.460   2.905  0.3615 -0.9798  0.5473
10811SOL     OW34426   1.758   2.090   7.365  0.2405  0.0570  0.1526
10811SOL    HW134427   1.766   2.183   7.383  1.2169 -0.0854  0.5128
10811SOL    HW234428   1.670   2.080   7.327  0.9508  1.4429 -2.0052
10812SOL     OW34429   2.685   3.859   0.795 -0.7577  0.3067 -0.4634
10812SOL    HW134430   2.711   3.836   0.706  0.5544 -1.8854  0.4128
10812SOL    HW234431   2.675   3.954   0.794  1.6744  0.6199 -2.3362
10813SOL     OW34432   7.356   1.144   0.155  0.4114  0.5877 -0.8205
10813SOL    HW134433   7.369   1.137   0.249 -1.1865 -2.8660 -0.7113
10813SOL    HW234434   7.444   1.148   0.119  1.0575  1.3410  0.7429
10814SOL     OW34435   0.331   8.052   3.143  0.0519 -0.0858 -0.3411
10814SOL    HW134436   0.389   8.002   3.085 -1.5607  0.1788 -2.2783
10814SOL    HW234437   0.273   7.987   3.182  3.0817 -0.7695  3.7218
10815SOL     OW34438   7.232   8.681   3.496  0.5448 -0.1045  0.3349
10815SOL    HW134439   7.162   8.616   3.494 -0.1085  0.5830  0.5091
10815SOL    HW234440   7.305   8.638   3.451  0.1185 -0.9428  0.4146
10816SOL     OW34441   2.826   1.136   2.886 -0.1123 -0.3282  0.6083
10816SOL    HW134442   2.922   1.133   2.884 -0.0388  0.7167  1.6913
10816SOL    HW234443   2.800   1.044   2.888  0.8526 -0.6363  0.0150
10817SOL     OW34444   1.358   7.483   1.083  0.4998 -0.0269  0.4300
10817SOL    HW134445   1.330   7.487   1.174  2.0365 -1.3618  1.0229
10817SOL    HW234446   1.304   7.414   1.044  0.2000  0.1885  0.4611
10818SOL     OW34447   6.166   1.652   5.867 -0.0803 -0.0941 -0.0242
10818SOL    HW134448   6.166   1.575   5.811  0.3750  0.1863 -0.4206
10818SOL    HW234449   6.255   1.688   5.859 -0.4227  0.7388 -0.2331
10819SOL     OW34450   7.998   6.393   5.285 -0.8740  0.2158  0.2622
10819SOL    HW134451   8.047   6.458   5.334  0.5120 -0.2534 -0.4558
10819SOL    HW234452   7.996   6.316   5.342  2.0322 -0.8500 -0.8625
10820SOL     OW34453   0.189   3.941   3.854 -0.2902 -0.4459 -0.6247
10820SOL    HW134454   0.253   3.943   3.926  1.3851  0.7835 -2.0449
10820SOL    HW234455   0.234   3.894   3.784 -1.2429 -0.1797 -1.4272
10821SOL     OW34456   4.128   5.355   3.306  0.3286  0.4618 -0.0676
10821SOL    HW134457   4.057   5.295   3.327  0.5789  0.4532  0.7689
10821SOL    HW234458   4.100   5.439   3.342  1.1477  0.2504  1.1222
10822SOL     OW34459   4.122   4.632   7.122 -0.7929 -0.2034  0.4896
10822SOL    HW134460   4.212   4.662   7.134  0.1200 -1.2696 -2.6771
10822SOL    HW234461   4.074   4.710   7.096 -0.4117  0.0777  0.6219
10823SOL     OW34462   6.708   3.305   6.105 -0.2806  0.4584  0.3880
10823SOL    HW134463   6.646   3.265   6.045 -0.0159 -0.1219  0.4849
10823SOL    HW234464   6.705   3.398   6.085 -0.7755  0.3689  0.0213
10824SOL     OW34465   2.189   5.610   3.419  0.4888 -0.0889  0.0631
10824SOL    HW134466   2.255   5.550   3.386  0.4966 -0.8823  1.4602
10824SOL    HW234467   2.197   5.688   3.364  2.0485 -0.4705 -0.2800
10825SOL     OW34468   8.444   7.967   6.053  0.4318  0.0880  0.2509
10825SOL    HW134469   8.398   8.051   6.055  2.3917  1.3937 -2.5705
10825SOL    HW234470   8.509   7.973   6.123 -0.0103  0.5602  0.6261
10826SOL     OW34471   7.857   3.959   1.006 -0.2788 -0.0955  0.1493
10826SOL    HW134472   7.884   4.046   1.038 -1.0295  0.5623 -0.9276
10826SOL    HW234473   7.935   3.905   1.015 -0.2978  0.1669  2.5863
10827SOL     OW34474   4.911   1.534   1.682 -0.3675 -0.0094  0.5755
10827SOL    HW134475   4.887   1.625   1.663 -1.8693 -0.8555 -2.0221
10827SOL    HW234476   4.828   1.486   1.681  0.6060 -1.7783 -0.5528
10828SOL     OW34477   4.963   5.559   0.739 -0.5234  0.1116 -0.4218
10828SOL    HW134478   4.935   5.512   0.817 -0.2149  0.4621 -0.0973
10828SOL    HW234479   4.905   5.635   0.735  1.0937  1.4885  0.9203
10829SOL     OW34480   5.385   2.144   6.916  0.9593 -0.0770  0.0048
10829SOL    HW134481   5.438   2.189   6.850  0.7372 -0.6326 -0.5603
10829SOL    HW234482   5.429   2.060   6.929  0.8269 -0.0942  0.3315
10830SOL     OW34483   7.405   4.893   7.701 -0.0103 -0.3289  0.7098
10830SOL    HW134484   7.348   4.829   7.743  1.2285 -2.5892 -0.7861
10830SOL    HW234485   7.465   4.840   7.648  3.5040  1.8400  2.1740
10831SOL     OW34486   0.326   6.529   8.859 -0.6103 -0.7725  0.4852
10831SOL    HW134487   0.374   6.567   8.932 -0.2919 -2.0633  0.9756
10831SOL    HW234488   0.249   6.490   8.899 -2.3270  1.5274 -0.3188
10832SOL     OW34489   5.948   2.531   2.981  0.1973 -0.2517  0.4940
10832SOL    HW134490   6.027   2.582   3.003  1.1411 -1.6018  0.3390
10832SOL    HW234491   5.964   2.500   2.892 -0.5858 -0.4169  0.4098
10833SOL     OW34492   2.761   0.919   7.614  0.3639  0.0024  0.3424
10833SOL    HW134493   2.670   0.922   7.585  0.6452  2.1120 -0.4612
10833SOL    HW234494   2.766   0.840   7.668 -1.7841 -0.4708 -0.0543
10834SOL     OW34495   2.885   5.581   5.770 -0.4185 -0.2851  0.6098
10834SOL    HW134496   2.847   5.493   5.763 -1.6672  0.3168 -0.6502
10834SOL    HW234497   2.868   5.608   5.860  0.0833 -1.3657  1.0408
10835SOL     OW34498   4.037   5.288   5.359  0.8935 -0.1809  0.1493
10835SOL    HW134499   4.099   5.216   5.349  0.9628 -0.8182  3.7360
10835SOL    HW234500   4.091   5.364   5.383  0.5740  0.2859 -0.5751
10836SOL     OW34501   3.986   2.856   7.609 -0.2707 -0.1490 -0.1134
10836SOL    HW134502   3.891   2.865   7.619 -0.4966  0.5202 -2.2824
10836SOL    HW234503   4.002   2.762   7.615 -1.3504 -0.4609 -1.4913
10837SOL     OW34504   3.060   6.791   0.298 -0.0332  0.0883  0.3881
10837SOL    HW134505   3.097   6.703   0.293 -1.5328 -0.5557 -0.0058
10837SOL    HW234506   3.082   6.821   0.387 -1.3792 -1.5914  1.3393
10838SOL     OW34507   7.131   2.674   6.770  0.1729  1.1832 -0.1858
10838SOL    HW134508   7.183   2.656   6.692  1.1806 -1.6780  0.9990
10838SOL    HW234509   7.169   2.617   6.837 -1.5818  2.4485  2.0177
10839SOL     OW34510   2.293   0.938   3.578  0.4188  0.7377  0.7494
10839SOL    HW134511   2.307   0.998   3.651  0.4388  1.4470  0.1729
10839SOL    HW234512   2.211   0.967   3.539  0.3947  0.3455  0.5020
10840SOL     OW34513   4.419   2.519   4.680  0.2220  0.3615  0.1832
10840SOL    HW134514   4.435   2.425   4.689 -0.8305  0.2359  0.9054
10840SOL    HW234515   4.462   2.557   4.757  2.7274  0.7734 -1.3198
10841SOL     OW34516   5.564   8.746   0.772  0.6401  0.1996  0.1366
10841SOL    HW134517   5.653   8.775   0.795 -0.1115  1.4555  1.7119
10841SOL    HW234518   5.541   8.799   0.696  1.8093 -1.3223 -1.3360
10842SOL     OW34519   5.035   0.936   1.377 -0.1416 -0.1137 -0.8371
10842SOL    HW134520   5.099   0.896   1.436 -2.2309 -1.7777  0.4859
10842SOL    HW234521   5.081   1.011   1.339  2.1433 -0.4549  0.9775
10843SOL     OW34522   8.523   4.330   1.838 -0.6609  0.4217  0.2895
10843SOL    HW134523   8.455   4.355   1.901 -0.1663 -0.7702  1.3401
10843SOL    HW234524   8.582   4.405   1.837 -0.8033  0.5619  1.0900
10844SOL     OW34525   6.415   4.542   3.288 -0.6864 -0.2567 -0.0877
10844SOL    HW134526   6.374   4.624   3.316  0.0070 -0.4561  1.6569
10844SOL    HW234527   6.509   4.557   3.296 -0.4791 -0.7119 -1.3575
10845SOL     OW34528   7.666   3.468   2.308 -0.0813  0.2324 -0.9972
10845SOL    HW134529   7.613   3.467   2.228  0.1426  0.0105 -1.1417
10845SOL    HW234530   7.666   3.560   2.335 -2.1360 -0.0167  0.0690
10846SOL     OW34531   2.551   2.441   7.621 -0.2932 -0.1064 -0.0151
10846SOL    HW134532   2.520   2.402   7.703  1.0590 -3.3504 -0.8871
10846SOL    HW234533   2.471   2.460   7.572 -1.0596 -0.4406  1.0631
10847SOL     OW34534   1.031   6.950   4.572  0.1331 -0.8143  0.4344
10847SOL    HW134535   1.023   6.953   4.477  1.3852 -1.2039  0.3038
10847SOL    HW234536   1.125   6.941   4.588 -0.0260 -0.3796  1.7211
10848SOL     OW34537   3.448   7.029   4.584  0.0158  0.7626  0.3618
10848SOL    HW134538   3.457   6.957   4.521 -0.5813  1.0793 -0.0977
10848SOL    HW234539   3.534   7.070   4.585  0.1601  0.4757  0.0853
10849SOL     OW34540   2.741   6.057   8.234  0.1867  0.0410 -0.7635
10849SOL    HW134541   2.712   6.148   8.232 -0.9397 -0.2537  0.6669
10849SOL    HW234542   2.814   6.054   8.172  0.1408  1.8687 -0.9647
10850SOL     OW34543   0.173   1.322   4.911  0.2572 -0.6523 -0.6908
10850SOL    HW134544   0.235   1.368   4.855  0.2674  0.8510  0.4885
10850SOL    HW234545   0.221   1.308   4.993  0.1782 -2.6122 -0.9272
10851SOL     OW34546   6.938   3.401   5.793 -0.0673 -0.5010 -0.1835
10851SOL    HW134547   7.015   3.345   5.779  1.2856  0.8217  1.4006
10851SOL    HW234548   6.869   3.361   5.741  0.8212 -3.5861  0.7617
10852SOL     OW34549   8.787   6.033   4.592 -0.1389  0.1120 -0.3936
10852SOL    HW134550   8.843   6.095   4.637  0.0808  0.2331 -0.8237
10852SOL    HW234551   8.740   6.086   4.527  1.4382 -0.4419 -2.0704
10853SOL     OW34552   2.562   8.025   6.550 -0.3868  0.4750  0.0790
10853SOL    HW134553   2.471   8.044   6.529 -0.6192 -0.8767 -0.2576
10853SOL    HW234554   2.605   8.110   6.553 -1.5857  1.0994 -0.1130
10854SOL     OW34555   6.552   6.985   4.058  0.1009  0.2189  0.5183
10854SOL    HW134556   6.590   7.035   3.986  0.1364  0.5469  0.7621
10854SOL    HW234557   6.458   7.000   4.051  0.1793  1.1097  1.1610
10855SOL     OW34558   2.509   2.890   0.168  0.3180 -0.6223 -0.3592
10855SOL    HW134559   2.537   2.945   0.094  0.5229 -2.7033 -1.9093
10855SOL    HW234560   2.575   2.908   0.236 -0.0119  1.5158 -0.5291
10856SOL     OW34561   3.179   4.971   5.054 -0.1923 -0.2970  0.3587
10856SOL    HW134562   3.146   4.930   5.134 -0.1689  0.0170  0.5322
10856SOL    HW234563   3.126   5.051   5.045  0.8711  0.4989  0.9428
10857SOL     OW34564   7.807   1.561   6.151  0.3679  0.2565  0.0646
10857SOL    HW134565   7.799   1.655   6.172  0.9171  0.3030  0.0662
10857SOL    HW234566   7.896   1.551   6.118 -0.0867 -0.0454 -1.1064
10858SOL     OW34567   0.720   1.433   8.118  0.7397 -0.2989 -0.2583
10858SOL    HW134568   0.665   1.402   8.047 -0.4772  0.1589  0.4524
10858SOL    HW234569   0.731   1.358   8.175 -0.1021 -0.1094  0.1698
10859SOL     OW34570   4.328   6.898   1.565 -0.2698 -0.1922  0.0360
10859SOL    HW134571   4.235   6.876   1.557 -0.5005  0.9616 -0.7918
10859SOL    HW234572   4.343   6.908   1.659 -1.2104  0.5023  0.1230
10860SOL     OW34573   4.406   3.242   4.959 -0.1228 -1.0874 -0.3859
10860SOL    HW134574   4.333   3.191   4.995 -0.1717 -1.1948 -0.6363
10860SOL    HW234575   4.443   3.186   4.891 -1.0402 -0.2500 -1.6309
10861SOL     OW34576   5.476   7.288   1.580  0.1951 -0.5510  0.7078
10861SOL    HW134577   5.453   7.273   1.671 -3.9522  2.3731  0.4176
10861SOL    HW234578   5.434   7.217   1.532  0.9399 -1.1301  0.8891
10862SOL     OW34579   1.164   0.373   1.753 -0.6807 -0.2548 -0.0991
10862SOL    HW134580   1.220   0.301   1.782  1.4722  1.1664 -0.5693
10862SOL    HW234581   1.189   0.447   1.808 -1.4342  0.6660 -0.9659
10863SOL     OW34582   1.517   4.635   6.837 -0.0595 -0.1890 -0.1289
10863SOL    HW134583   1.436   4.586   6.822  0.8040 -1.5076 -0.6493
10863SOL    HW234584   1.531   4.684   6.756  0.8662 -1.8031 -1.0028
10864SOL     OW34585   6.271   8.004   6.877  0.1731  0.5186  0.1206
10864SOL    HW134586   6.353   7.978   6.919  0.6432  0.7410 -0.6335
10864SOL    HW234587   6.272   8.100   6.879  0.1938  0.5333 -0.3674
10865SOL     OW34588   1.198   2.806   0.089  0.4337  0.0978  0.4378
10865SOL    HW134589   1.153   2.816   0.005 -0.3656 -0.3353  0.8036
10865SOL    HW234590   1.206   2.711   0.100  1.2705  0.1661  0.4720
10866SOL     OW34591   2.777   5.165   5.390  0.0480 -0.0092  0.1797
10866SOL    HW134592   2.751   5.091   5.334 -0.3865  0.9695 -0.9525
10866SOL    HW234593   2.869   5.180   5.369  0.1476 -0.2473  0.4400
10867SOL     OW34594   2.660   2.677   7.285 -0.0086 -0.4394 -0.2638
10867SOL    HW134595   2.681   2.634   7.367 -1.3113  1.0817  0.9366
10867SOL    HW234596   2.702   2.623   7.218  2.7520 -0.6716  1.4937
10868SOL     OW34597   7.886   8.333   5.595  0.0021 -0.2651  0.3570
10868SOL    HW134598   7.858   8.285   5.517 -1.2041 -0.9399  1.1639
10868SOL    HW234599   7.872   8.271   5.667  3.6381 -0.6855  0.8970
10869SOL     OW34600   5.384   6.654   4.356 -0.4003 -0.2203 -0.1519
10869SOL    HW134601   5.464   6.701   4.330  0.6998 -0.1240  3.0465
10869SOL    HW234602   5.314   6.719   4.345  0.3642  0.5916 -0.3522
10870SOL     OW34603   3.531   4.765   5.286 -0.0476 -0.1772 -0.3436
10870SOL    HW134604   3.607   4.778   5.343 -0.2360  0.7361 -0.2820
10870SOL    HW234605   3.565   4.718   5.210  0.3039 -0.9724  0.2948
10871SOL     OW34606   0.290   6.754   1.641 -0.1526  0.2052 -1.0122
10871SOL    HW134607   0.211   6.797   1.606 -0.9465 -0.0107  0.4639
10871SOL    HW234608   0.318   6.811   1.713 -0.1518 -0.7732 -0.2228
10872SOL     OW34609   7.697   5.021   1.859  0.0929  0.0625 -0.3431
10872SOL    HW134610   7.709   4.965   1.937  0.1139 -1.3665 -1.3292
10872SOL    HW234611   7.668   5.105   1.894 -1.1333 -0.9308  1.1471
10873SOL     OW34612   6.124   3.285   6.527  0.4491 -0.0617  0.7348
10873SOL    HW134613   6.076   3.205   6.550  1.2774 -0.2276  2.0013
10873SOL    HW234614   6.209   3.253   6.496  0.0743  0.2624 -0.6816
10874SOL     OW34615   0.971   2.513   8.655  0.0034  0.3021  0.2221
10874SOL    HW134616   0.898   2.470   8.610  0.8222 -1.3686  0.4417
10874SOL    HW234617   1.030   2.540   8.584 -0.7911  1.6519  0.0446
10875SOL     OW34618   0.233   1.152   3.533  0.7145 -0.3112 -0.3636
10875SOL    HW134619   0.182   1.133   3.612 -2.1079  1.4793 -1.6293
10875SOL    HW234620   0.248   1.066   3.493  1.8426 -1.2111  1.8135
10876SOL     OW34621   7.799   1.183   2.048  0.3775 -0.1046 -0.2598
10876SOL    HW134622   7.848   1.222   2.121  0.7577 -0.7308 -0.1687
10876SOL    HW234623   7.847   1.210   1.970 -0.1894  0.7988 -0.3083
10877SOL     OW34624   2.365   2.677   7.925  0.0733  0.3767  0.0106
10877SOL    HW134625   2.385   2.589   7.958 -0.2998  0.1941 -0.2388
10877SOL    HW234626   2.441   2.729   7.949 -1.1934  0.9086  3.5114
10878SOL     OW34627   3.904   7.352   7.864 -0.3384 -0.2876 -0.0480
10878SOL    HW134628   3.932   7.263   7.882  1.4213  0.6130  2.1646
10878SOL    HW234629   3.842   7.373   7.934 -0.4864  0.3225 -0.3509
10879SOL     OW34630   8.276   8.531   3.233  0.1031 -0.1891  0.0610
10879SOL    HW134631   8.371   8.535   3.240  0.1518 -0.6903 -0.2815
10879SOL    HW234632   8.258   8.444   3.196 -0.5492 -0.6334  1.3467
10880SOL     OW34633   8.155   0.384   5.094 -0.3462  0.3066 -0.5313
10880SOL    HW134634   8.232   0.426   5.055  0.2852 -0.3073  0.0154
10880SOL    HW234635   8.094   0.456   5.110  0.1289  0.8135 -0.9369
10881SOL     OW34636   0.757   2.303   6.763 -0.2164 -0.2277  0.2711
10881SOL    HW134637   0.797   2.218   6.783 -0.5000 -0.7639 -1.2687
10881SOL    HW234638   0.822   2.348   6.709 -0.1079  0.5142  0.9994
10882SOL     OW34639   5.330   1.582   5.094 -0.6797  0.1673  0.0170
10882SOL    HW134640   5.293   1.567   5.181 -1.4673 -0.3725 -0.4050
10882SOL    HW234641   5.262   1.553   5.034 -0.3222  0.9653 -0.7911
10883SOL     OW34642   8.647   2.749   2.411 -0.1730 -0.3561 -0.4999
10883SOL    HW134643   8.723   2.782   2.363 -2.2327  1.9090 -2.5363
10883SOL    HW234644   8.639   2.658   2.383  0.1617  0.2046 -2.5918
10884SOL     OW34645   5.047   2.604   0.398 -0.5856 -0.1706 -0.6735
10884SOL    HW134646   5.119   2.545   0.375 -1.1369 -0.7022 -1.0558
10884SOL    HW234647   5.090   2.677   0.442  0.1889 -0.4959 -0.8641
10885SOL     OW34648   3.076   0.454   7.912  0.3518  0.4052 -0.3095
10885SOL    HW134649   3.157   0.422   7.951 -0.3209  0.0609  0.8466
10885SOL    HW234650   3.062   0.540   7.952 -0.1487  0.2121 -0.0539
10886SOL     OW34651   8.719   8.779   3.524  0.3768 -0.3502 -0.5281
10886SOL    HW134652   8.701   8.819   3.439 -0.2167  0.6990  0.0817
10886SOL    HW234653   8.758   8.848   3.577 -1.6791 -0.1918  0.8978
10887SOL     OW34654   3.098   0.691   0.511 -0.1354  0.7820  0.0904
10887SOL    HW134655   3.064   0.747   0.581 -2.8046 -1.7285  0.9630
10887SOL    HW234656   3.070   0.734   0.430 -0.6178  1.5788  0.6687
10888SOL     OW34657   5.336   1.368   0.581  0.7631 -0.1689  0.1325
10888SOL    HW134658   5.314   1.317   0.659 -0.7503 -1.6064 -1.1467
10888SOL    HW234659   5.302   1.455   0.598  0.7333 -0.3831  1.1942
10889SOL     OW34660   6.331   6.716   2.640 -0.1652 -0.4878 -0.3032
10889SOL    HW134661   6.265   6.764   2.590 -1.4708 -2.9613 -1.0879
10889SOL    HW234662   6.310   6.735   2.732 -0.1384  1.0075 -0.5810
10890SOL     OW34663   1.386   2.337   4.685  0.1336 -0.6269 -0.2890
10890SOL    HW134664   1.377   2.389   4.605  1.3796  0.1061  0.0080
10890SOL    HW234665   1.368   2.399   4.756 -0.4742 -1.1466  0.0216
10891SOL     OW34666   7.625   8.607   8.639  0.6425 -0.4492  0.0118
10891SOL    HW134667   7.670   8.599   8.555 -0.2886  0.1752 -0.5610
10891SOL    HW234668   7.540   8.645   8.618  0.1499 -0.8546  1.1710
10892SOL     OW34669   2.772   6.174   6.443  0.4216  0.2230 -0.0172
10892SOL    HW134670   2.768   6.269   6.454  0.9701  0.1682  0.8220
10892SOL    HW234671   2.866   6.154   6.450  1.1387  0.1671 -5.4891
10893SOL     OW34672   2.596   5.506   6.274  0.0837 -0.4538  0.3060
10893SOL    HW134673   2.599   5.599   6.253  0.1385 -0.6562 -0.6456
10893SOL    HW234674   2.503   5.487   6.288 -0.5918 -1.0934 -3.7659
10894SOL     OW34675   6.455   0.238   4.725  0.0447  0.4101  0.2031
10894SOL    HW134676   6.484   0.329   4.735  0.4822  0.1492  1.5032
10894SOL    HW234677   6.494   0.210   4.642  0.5858  1.1543  0.1922
10895SOL     OW34678   7.936   7.256   8.464  0.5448  0.2310 -0.3168
10895SOL    HW134679   8.028   7.240   8.484  0.5118 -0.0501 -0.3765
10895SOL    HW234680   7.892   7.247   8.549  0.6785  1.2273 -0.1369
10896SOL     OW34681   3.180   4.459   2.415  0.5147  0.0501 -0.0014
10896SOL    HW134682   3.197   4.496   2.501  0.9791 -0.2493  0.0357
10896SOL    HW234683   3.106   4.510   2.381  1.2144  1.0853  0.0025
10897SOL     OW34684   0.138   1.537   5.182  0.1940 -0.0675  1.1283
10897SOL    HW134685   0.146   1.470   5.250 -0.4646  0.0603  1.3337
10897SOL    HW234686   0.189   1.610   5.215  1.7114 -0.7891  0.4763
10898SOL     OW34687   5.688   4.904   2.827  0.3191 -0.2900 -0.3176
10898SOL    HW134688   5.736   4.823   2.811 -0.0712 -0.8119  0.9801
10898SOL    HW234689   5.750   4.960   2.872  0.3631 -0.1368 -0.5658
10899SOL     OW34690   8.330   4.711   3.593 -0.0585 -0.3299 -0.2044
10899SOL    HW134691   8.401   4.671   3.543  0.1869  1.3912 -1.3279
10899SOL    HW234692   8.369   4.791   3.630 -0.3645 -1.2765  2.4291
10900SOL     OW34693   3.840   7.461   1.974  0.3539  0.1459  0.1273
10900SOL    HW134694   3.922   7.429   2.012 -0.3120  0.6990  2.1903
10900SOL    HW234695   3.839   7.554   1.996 -1.5179 -0.1641  1.5474
10901SOL     OW34696   1.827   4.036   7.893  0.0923  0.0488 -0.0368
10901SOL    HW134697   1.776   4.026   7.812 -1.4006  2.4038  0.5020
10901SOL    HW234698   1.771   3.998   7.961 -0.2097  1.0987  0.3191
10902SOL     OW34699   7.175   0.191   4.196  0.2467 -0.0178 -0.0929
10902SOL    HW134700   7.132   0.245   4.263 -0.9108  0.1873 -0.9823
10902SOL    HW234701   7.158   0.101   4.223 -1.8572  0.0369 -1.0860
10903SOL     OW34702   0.440   3.139   4.377  0.3544 -0.6170  0.0485
10903SOL    HW134703   0.438   3.168   4.286  0.1407 -0.2620  0.1655
10903SOL    HW234704   0.515   3.184   4.416 -0.4687  0.4489  0.4467
10904SOL     OW34705   8.298   4.715   8.675  0.4149  0.3799  0.0925
10904SOL    HW134706   8.298   4.807   8.651 -0.0468  0.5970  0.9033
10904SOL    HW234707   8.370   4.677   8.624 -0.4486  0.8391 -1.5288
10905SOL     OW34708   0.889   5.043   0.607 -0.2226  0.2390 -0.4066
10905SOL    HW134709   0.918   4.954   0.625 -1.0122 -0.2704 -1.5020
10905SOL    HW234710   0.961   5.099   0.634 -0.5599 -0.5527  2.4129
10906SOL     OW34711   5.968   3.070   1.772  0.1039 -0.7688  0.0740
10906SOL    HW134712   5.993   3.000   1.833 -0.9129 -0.3877  0.9642
10906SOL    HW234713   5.923   3.135   1.827  0.3726  0.2402 -0.8599
10907SOL     OW34714   7.482   1.508   7.930  0.2359 -0.4183  0.9456
10907SOL    HW134715   7.497   1.432   7.986 -0.4228 -1.4871 -0.2489
10907SOL    HW234716   7.555   1.507   7.868  0.8380  0.6144  1.6140
10908SOL     OW34717   5.073   0.270   1.505  0.1130  0.3806  0.4684
10908SOL    HW134718   5.034   0.354   1.529  0.7498  0.1425  2.5241
10908SOL    HW234719   5.082   0.223   1.588  1.1169 -1.1415 -0.4521
10909SOL     OW34720   3.031   7.063   3.031 -0.0448 -0.4081 -0.5224
10909SOL    HW134721   2.936   7.057   3.027 -0.1662  0.3473  0.7216
10909SOL    HW234722   3.060   6.971   3.029 -1.0249 -0.9137  2.6839
10910SOL     OW34723   8.072   5.934   3.250 -0.1925  0.2008 -0.9153
10910SOL    HW134724   8.054   5.932   3.344  0.8249 -1.9599 -0.6972
10910SOL    HW234725   7.990   5.907   3.209 -0.6137  1.0662 -0.6624
10911SOL     OW34726   8.278   5.722   6.069  0.0063  0.5626 -0.1511
10911SOL    HW134727   8.270   5.786   5.998 -0.9656  1.4291  0.7049
10911SOL    HW234728   8.218   5.753   6.136  0.4355 -0.5883  0.8020
10912SOL     OW34729   4.453   2.201   5.968 -0.2347  0.0356  0.2287
10912SOL    HW134730   4.422   2.286   5.938 -0.6023 -0.2948 -0.3542
10912SOL    HW234731   4.501   2.219   6.049 -1.4310  0.6387  0.8323
10913SOL     OW34732   7.985   2.746   7.542 -0.1228 -0.0539 -0.1248
10913SOL    HW134733   7.892   2.768   7.548 -0.1767 -0.3814  0.2618
10913SOL    HW234734   8.006   2.706   7.627  0.2110 -0.5902 -0.4564
10914SOL     OW34735   0.796   3.427   8.591  0.1888 -0.2613  0.4447
10914SOL    HW134736   0.816   3.520   8.604 -0.8566 -0.0530  0.6434
10914SOL    HW234737   0.879   3.388   8.562  0.4080  0.9089 -0.5612
10915SOL     OW34738   4.428   1.226   8.029  0.2394  0.4824 -0.3942
10915SOL    HW134739   4.344   1.268   8.012  0.0523 -0.3427 -1.6554
10915SOL    HW234740   4.449   1.180   7.948  2.4959  1.6372 -0.5440
10916SOL     OW34741   4.280   4.598   4.828  0.6307 -0.2150 -0.0709
10916SOL    HW134742   4.293   4.540   4.903  0.4111  0.2249  0.3116
10916SOL    HW234743   4.327   4.555   4.756 -1.6873 -2.2308 -0.5052
10917SOL     OW34744   5.926   1.096   1.003 -0.0281 -0.0957  0.4263
10917SOL    HW134745   5.907   1.055   1.087  0.8720 -0.4617  0.4677
10917SOL    HW234746   6.022   1.090   0.995 -0.0875  0.1053 -0.5368
10918SOL     OW34747   2.697   0.803   1.178  0.1004  0.4476 -0.3855
10918SOL    HW134748   2.633   0.760   1.122 -1.6044 -2.0076  3.0130
10918SOL    HW234749   2.644   0.853   1.240  1.3952 -0.7765  1.8527
10919SOL     OW34750   7.890   2.217   5.926  0.5457 -0.2743 -0.4042
10919SOL    HW134751   7.925   2.245   6.010 -0.5601 -0.3086  0.0908
10919SOL    HW234752   7.864   2.298   5.882 -1.0686 -0.3580  0.3102
10920SOL     OW34753   0.553   2.467   0.632  0.2178  0.5458 -0.2407
10920SOL    HW134754   0.607   2.501   0.560  1.5102  0.9665  0.8912
10920SOL    HW234755   0.529   2.544   0.683  1.3050  0.0568  1.0894
10921SOL     OW34756   7.902   0.088   8.179 -0.3370  0.0828  0.2660
10921SOL    HW134757   7.851   0.030   8.235 -1.2883  0.1659 -0.4854
10921SOL    HW234758   7.836   0.133   8.125  0.5677 -0.4829 -1.3891
10922SOL     OW34759   0.896   2.424   5.934  0.0923 -0.5658 -0.1523
10922SOL    HW134760   0.835   2.413   5.861  0.4586 -2.1082 -0.2519
10922SOL    HW234761   0.881   2.348   5.991  1.9241 -1.0323 -0.2056
10923SOL     OW34762   7.701   8.060   0.175  0.3875  1.1233 -0.2393
10923SOL    HW134763   7.701   7.966   0.158  0.6091  1.1120 -0.1759
10923SOL    HW234764   7.609   8.081   0.191  0.3364  0.9181 -0.2634
10924SOL     OW34765   6.599   8.828   7.435 -0.2410  0.4448  0.5395
10924SOL    HW134766   6.628   8.916   7.410  2.0908 -0.8095 -1.6533
10924SOL    HW234767   6.550   8.797   7.359 -0.3906 -0.4429  0.9933
10925SOL     OW34768   3.945   3.986   1.159  0.3821 -0.3590  0.2003
10925SOL    HW134769   3.897   4.067   1.180  0.5833 -0.3903  0.7968
10925SOL    HW234770   4.017   3.984   1.222  0.2056 -1.1622  0.3884
10926SOL     OW34771   6.083   7.406   6.905  0.1649  0.5384 -0.0717
10926SOL    HW134772   6.133   7.455   6.970  2.3798  0.3151 -1.4840
10926SOL    HW234773   6.068   7.320   6.945  1.2627  0.4915  0.2656
10927SOL     OW34774   2.198   3.199   5.806 -0.6785  0.2165 -0.6024
10927SOL    HW134775   2.223   3.246   5.886  0.9443 -0.7148 -0.5401
10927SOL    HW234776   2.148   3.123   5.838 -0.2153 -0.0393 -0.4842
10928SOL     OW34777   7.775   8.852   2.681 -0.1336  0.1075  0.0530
10928SOL    HW134778   7.733   8.936   2.699 -1.5540 -0.1927 -1.5811
10928SOL    HW234779   7.791   8.814   2.767 -0.7667  1.4363  0.7794
10929SOL     OW34780   4.557   1.140   5.248 -0.2229 -0.0688  0.2870
10929SOL    HW134781   4.602   1.173   5.170 -1.4562  0.7539 -0.1091
10929SOL    HW234782   4.628   1.123   5.310  0.6976  0.4296 -0.5838
10930SOL     OW34783   3.975   5.565   8.083  0.0360  0.9521 -0.0533
10930SOL    HW134784   3.919   5.600   8.152  1.5157  0.2099  1.5913
10930SOL    HW234785   3.977   5.471   8.099 -1.1951  0.4454 -2.3895
10931SOL     OW34786   7.614   3.025   8.536  0.1843 -0.3074  0.3432
10931SOL    HW134787   7.707   3.031   8.514 -0.0411 -0.6850 -0.7718
10931SOL    HW234788   7.572   3.091   8.481 -0.2702 -0.5025  0.4517
10932SOL     OW34789   2.007   2.420   7.152  0.6093 -0.2934 -0.0689
10932SOL    HW134790   2.032   2.434   7.244 -1.1670 -0.5442  0.4942
10932SOL    HW234791   2.023   2.504   7.110 -0.7095  0.5498  1.0217
10933SOL     OW34792   7.833   6.227   5.745 -0.4726  0.1672  0.3827
10933SOL    HW134793   7.856   6.307   5.698  1.1518 -0.6551 -0.3020
10933SOL    HW234794   7.874   6.238   5.831 -1.3736  0.6140  0.7713
10934SOL     OW34795   1.786   0.278   6.521  0.1114  0.4004 -0.5076
10934SOL    HW134796   1.730   0.325   6.583  1.1789  0.1529  0.6992
10934SOL    HW234797   1.753   0.188   6.522  0.8098  0.1397  0.5838
10935SOL     OW34798   5.022   6.085   5.849 -0.1566 -0.0913 -0.2085
10935SOL    HW134799   5.100   6.096   5.795  0.6923 -0.0378  0.9820
10935SOL    HW234800   5.048   6.021   5.915 -1.2222 -0.2908  0.0332
10936SOL     OW34801   4.202   7.168   8.889  0.3682  0.1670  0.1107
10936SOL    HW134802   4.114   7.157   8.925  1.0539 -2.7115  1.1958
10936SOL    HW234803   4.261   7.139   8.959  2.2035  1.6281 -0.7243
10937SOL     OW34804   2.959   4.041   6.793  0.6064 -0.1948 -0.0349
10937SOL    HW134805   2.887   4.096   6.763 -0.0299 -1.6162 -1.2344
10937SOL    HW234806   3.038   4.082   6.758  0.2088  0.3215 -0.3249
10938SOL     OW34807   6.928   6.157   8.597 -0.4574  0.1841  0.6249
10938SOL    HW134808   6.860   6.200   8.648  0.1719  1.0012  0.7859
10938SOL    HW234809   6.983   6.113   8.662 -0.1968  0.4403  0.5764
10939SOL     OW34810   4.978   2.634   7.962 -0.0564 -0.2109  0.0413
10939SOL    HW134811   5.043   2.575   7.924 -1.4294 -0.8124 -1.5186
10939SOL    HW234812   4.913   2.577   8.001 -0.8774  0.2709 -0.5788
10940SOL     OW34813   5.105   8.607   4.123  0.3611  0.4387  0.6843
10940SOL    HW134814   5.123   8.690   4.078  0.8296  1.1886  2.1840
10940SOL    HW234815   5.010   8.605   4.134  0.3374  0.7176  0.5406
10941SOL     OW34816   2.989   0.377   7.673  0.0749 -0.1920  0.1494
10941SOL    HW134817   2.895   0.391   7.683  0.5257  3.4616  0.7036
10941SOL    HW234818   3.025   0.394   7.761  1.4909  2.4576 -0.8140
10942SOL     OW34819   0.058   6.987   0.216 -0.0352  0.6852  0.4532
10942SOL    HW134820   0.141   7.022   0.247  0.2765  0.0954  0.2978
10942SOL    HW234821   0.007   7.064   0.191  1.3825  0.9926 -1.7673
10943SOL     OW34822   3.562   4.341   2.592 -0.2087 -0.5142 -0.5267
10943SOL    HW134823   3.479   4.314   2.633  0.9966  0.3201  2.7510
10943SOL    HW234824   3.612   4.260   2.586 -0.2741 -0.6068  0.0610
10944SOL     OW34825   0.509   5.381   3.105  0.6698  0.5382  0.3791
10944SOL    HW134826   0.479   5.368   3.015  0.2990  0.1361  0.5539
10944SOL    HW234827   0.433   5.419   3.150  0.7107  0.3374  0.6193
10945SOL     OW34828   6.430   2.355   0.335  0.3940 -0.7752 -0.1846
10945SOL    HW134829   6.478   2.357   0.418  2.4145 -0.7824 -1.3011
10945SOL    HW234830   6.414   2.262   0.319 -0.8996 -0.7166  0.6641
10946SOL     OW34831   3.874   7.453   3.371 -0.0032  0.5848  0.2151
10946SOL    HW134832   3.830   7.535   3.349  0.3174  0.9763  0.9933
10946SOL    HW234833   3.966   7.468   3.349 -0.2675 -0.3698 -1.7982
10947SOL     OW34834   0.232   2.785   1.224 -1.1841  0.4390 -0.0471
10947SOL    HW134835   0.203   2.874   1.244 -0.8707  0.7219 -0.8223
10947SOL    HW234836   0.153   2.732   1.231 -1.2966  0.7074  0.8070
10948SOL     OW34837   4.858   7.179   7.757 -0.4420 -1.0234 -0.0661
10948SOL    HW134838   4.897   7.096   7.733  0.1740 -1.0592  1.0029
10948SOL    HW234839   4.932   7.237   7.775 -0.8292  0.0594 -1.6695
10949SOL     OW34840   3.294   7.470   1.637 -0.1173 -0.1272 -0.9599
10949SOL    HW134841   3.253   7.553   1.613  0.8013  0.0440 -2.0022
10949SOL    HW234842   3.229   7.404   1.615 -0.8265  0.2857 -0.1932
10950SOL     OW34843   1.888   4.662   2.239  0.0354  0.4322  0.1049
10950SOL    HW134844   1.970   4.708   2.219  1.3215 -1.8576 -0.2909
10950SOL    HW234845   1.916   4.576   2.269 -2.2506 -0.2668  0.4202
10951SOL     OW34846   4.554   3.654   2.152 -0.3821 -0.6344  0.6571
10951SOL    HW134847   4.601   3.604   2.219 -0.9904 -1.7326  0.2942
10951SOL    HW234848   4.622   3.701   2.104  0.2727 -1.5687  0.6452
10952SOL     OW34849   5.180   1.570   4.613  0.0888  0.0536 -0.1592
10952SOL    HW134850   5.156   1.550   4.704  2.7169 -0.4429  0.5022
10952SOL    HW234851   5.165   1.488   4.567 -0.6436  0.1196 -0.0517
10953SOL     OW34852   1.864   1.866   0.805  0.3716 -0.2716  0.3779
10953SOL    HW134853   1.860   1.812   0.884  2.8540 -0.8995  0.1619
10953SOL    HW234854   1.932   1.826   0.751 -1.0242  0.3421 -1.9750
10954SOL     OW34855   5.013   1.966   7.725 -0.2478 -0.7331  0.2759
10954SOL    HW134856   5.019   1.992   7.634 -0.6480 -1.6856 -0.0357
10954SOL    HW234857   4.920   1.974   7.747  0.2405  3.2946  1.8171
10955SOL     OW34858   6.304   4.473   0.826 -0.0927 -0.4694  0.0398
10955SOL    HW134859   6.338   4.498   0.911 -1.2900 -1.1733  0.7537
10955SOL    HW234860   6.217   4.438   0.844  0.2750 -2.1951 -1.2507
10956SOL     OW34861   2.550   3.043   8.043  0.4636  0.1746 -0.3659
10956SOL    HW134862   2.458   3.040   8.014  0.5798 -0.7380 -0.6629
10956SOL    HW234863   2.557   2.974   8.108  0.6971  0.9313  0.4271
10957SOL     OW34864   4.759   5.033   0.241 -0.6916 -0.2196 -0.3266
10957SOL    HW134865   4.779   4.949   0.199  0.6379 -0.1801  0.1832
10957SOL    HW234866   4.711   5.082   0.174 -1.2701 -1.2765 -0.7189
10958SOL     OW34867   2.185   6.414   1.133 -0.6309 -0.2973  0.7116
10958SOL    HW134868   2.114   6.474   1.153  0.2177  1.4839 -1.2903
10958SOL    HW234869   2.169   6.386   1.043  0.7989 -0.3923  0.4528
10959SOL     OW34870   5.387   0.582   0.488  0.4374 -0.1204  0.1652
10959SOL    HW134871   5.333   0.626   0.553 -0.2737  0.3704 -0.7475
10959SOL    HW234872   5.474   0.621   0.499  0.5001 -0.5441  1.2817
10960SOL     OW34873   3.758   4.283   7.017 -0.0135 -0.0808 -0.4220
10960SOL    HW134874   3.815   4.357   6.998  0.4527 -0.0746  0.9127
10960SOL    HW234875   3.736   4.292   7.110  0.8312 -2.0986  0.0369
10961SOL     OW34876   4.156   7.435   4.766 -0.3574 -0.3412  0.1299
10961SOL    HW134877   4.111   7.410   4.847 -0.9444 -0.4303 -0.2117
10961SOL    HW234878   4.249   7.429   4.787 -0.4650  1.6701  1.4098
10962SOL     OW34879   7.737   4.281   1.718  0.2865 -0.0537  0.2622
10962SOL    HW134880   7.734   4.269   1.812 -1.5112  0.0670  0.2600
10962SOL    HW234881   7.763   4.196   1.683  0.1546 -0.3275  0.8271
10963SOL     OW34882   5.850   1.438   6.207  0.0063  0.4081 -0.3994
10963SOL    HW134883   5.854   1.519   6.258  1.1664  0.8260 -1.1270
10963SOL    HW234884   5.758   1.412   6.213 -0.1730  1.1914  0.7363
10964SOL     OW34885   0.670   5.073   7.797  0.5957 -0.6294  0.2742
10964SOL    HW134886   0.610   5.119   7.856  1.1849  1.6318 -0.7551
10964SOL    HW234887   0.710   5.143   7.744  1.8111 -2.3355 -1.2059
10965SOL     OW34888   0.489   2.954   7.475  0.9865 -0.2749  0.0592
10965SOL    HW134889   0.567   2.989   7.432  0.9239  1.5362  1.2747
10965SOL    HW234890   0.469   3.019   7.544 -1.3032 -0.9320  0.0967
10966SOL     OW34891   8.248   1.192   2.165 -0.4633 -0.2682  0.2579
10966SOL    HW134892   8.340   1.203   2.189 -0.7099 -0.7793  1.5187
10966SOL    HW234893   8.208   1.151   2.242 -1.3994 -1.5920 -0.8849
10967SOL     OW34894   1.220   6.904   1.121  0.0538  0.0522  0.0052
10967SOL    HW134895   1.132   6.885   1.088 -0.6139 -1.8518  2.5936
10967SOL    HW234896   1.270   6.824   1.107  0.6859  0.3117  0.6887
10968SOL     OW34897   1.199   1.376   0.394  0.7793  0.8914  0.0993
10968SOL    HW134898   1.140   1.326   0.338 -0.9365  3.3270 -0.4145
10968SOL    HW234899   1.244   1.436   0.334  1.0834  1.5518  0.9574
10969SOL     OW34900   7.137   5.618   7.963 -0.0747  0.3147 -0.2168
10969SOL    HW134901   7.069   5.668   7.918 -2.7922 -3.4908 -0.8239
10969SOL    HW234902   7.100   5.599   8.050  2.4615  2.2612  1.4526
10970SOL     OW34903   2.395   1.739   0.234  0.0816  0.6454 -0.3617
10970SOL    HW134904   2.344   1.817   0.257 -0.2043  0.7931 -1.4282
10970SOL    HW234905   2.483   1.758   0.267 -0.9769 -0.6385  3.7043
10971SOL     OW34906   6.103   0.928   2.087  0.2420 -0.1037 -0.0494
10971SOL    HW134907   6.171   0.922   2.155  1.8388 -0.7374 -1.6259
10971SOL    HW234908   6.139   0.879   2.013 -1.9679 -0.4464 -0.9539
10972SOL     OW34909   2.251   2.760   6.814  0.1085  0.2747 -0.0799
10972SOL    HW134910   2.319   2.816   6.853 -1.2723  1.3897  0.8653
10972SOL    HW234911   2.299   2.700   6.756  2.0035  0.2722  1.3725
10973SOL     OW34912   3.988   0.050   0.387 -0.6760 -0.2789 -0.0195
10973SOL    HW134913   3.993  -0.027   0.332  0.2538 -1.2951  1.4209
10973SOL    HW234914   4.049   0.033   0.459 -1.1892  1.3521  0.8669
10974SOL     OW34915   0.568   4.593   4.034  0.0464 -0.4688 -0.0592
10974SOL    HW134916   0.572   4.525   3.967  0.2028 -1.5237  0.9920
10974SOL    HW234917   0.659   4.602   4.064 -0.1924 -0.7828  0.7692
10975SOL     OW34918   8.108   6.740   4.845 -0.1540  0.2432 -0.2312
10975SOL    HW134919   8.050   6.815   4.833  1.8067  2.2598  1.8313
10975SOL    HW234920   8.061   6.682   4.905 -1.0809  0.5019 -0.6865
10976SOL     OW34921   4.799   5.409   4.413  0.0604 -0.1679 -0.0079
10976SOL    HW134922   4.750   5.466   4.353 -1.9427  0.6357  2.2532
10976SOL    HW234923   4.890   5.439   4.406 -0.3044  0.6741 -1.7278
10977SOL     OW34924   3.243   0.642   7.165  0.5524 -0.0648  0.4857
10977SOL    HW134925   3.314   0.583   7.139  0.8015 -0.2992  1.6589
10977SOL    HW234926   3.194   0.593   7.231 -1.0959 -0.1532 -0.7388
10978SOL     OW34927   7.002   5.538   0.251 -0.0272 -0.5262 -0.1570
10978SOL    HW134928   7.028   5.589   0.174 -0.0960 -1.5884 -0.9030
10978SOL    HW234929   7.085   5.509   0.290  0.1979  2.5261  2.0112
10979SOL     OW34930   1.065   8.226   0.547  0.1998 -0.4791  0.6276
10979SOL    HW134931   1.031   8.156   0.491  1.4261 -0.5425 -0.0830
10979SOL    HW234932   1.158   8.231   0.524 -0.2224  2.7273 -0.7906
10980SOL     OW34933   1.749   6.611   1.980  0.3799  0.5953 -0.3743
10980SOL    HW134934   1.791   6.687   1.939 -0.7760  1.5823  0.1936
10980SOL    HW234935   1.707   6.647   2.058 -1.7476 -0.2719 -1.0583
10981SOL     OW34936   5.605   0.248   1.100 -0.2646 -0.5038  0.4794
10981SOL    HW134937   5.603   0.343   1.107 -1.7889 -0.5487  0.9640
10981SOL    HW234938   5.695   0.224   1.123 -0.0210  0.7716  0.9376
10982SOL     OW34939   6.743   6.141   3.418  0.6432  0.5326  0.2605
10982SOL    HW134940   6.685   6.114   3.347  0.6957  0.1101  0.3732
10982SOL    HW234941   6.766   6.232   3.398 -1.1292  1.1645  0.8956
10983SOL     OW34942   5.199   2.634   1.036 -0.0999 -0.0177 -0.5617
10983SOL    HW134943   5.152   2.711   1.003 -0.6859 -0.8103 -1.6505
10983SOL    HW234944   5.270   2.670   1.089 -0.6602  1.2613 -0.6407
10984SOL     OW34945   8.206   5.090   1.337 -0.3103 -0.3167  0.1560
10984SOL    HW134946   8.120   5.121   1.308 -0.6160 -1.5819 -0.3300
10984SOL    HW234947   8.267   5.127   1.273 -0.3200  1.5325  1.1422
10985SOL     OW34948   0.278   3.906   2.457  0.3462  0.5122 -0.1015
10985SOL    HW134949   0.333   3.960   2.401  1.4710  1.2018  1.5808
10985SOL    HW234950   0.203   3.962   2.479  1.3138  1.3077  1.3196
10986SOL     OW34951   8.664   2.007   7.070  0.2098  0.5050  0.4052
10986SOL    HW134952   8.707   1.923   7.088 -0.0666  0.4006  0.5805
10986SOL    HW234953   8.691   2.064   7.142  1.8555  1.1294 -0.6320
10987SOL     OW34954   8.673   3.274   2.040  0.1832 -0.6851  0.1598
10987SOL    HW134955   8.658   3.255   2.133  0.7032  1.1732  0.6518
10987SOL    HW234956   8.768   3.276   2.031  0.1326 -0.4384 -0.3401
10988SOL     OW34957   1.383   8.823   4.207 -0.1233  0.2561 -0.0205
10988SOL    HW134958   1.471   8.853   4.183  0.1729  0.2354  0.9998
10988SOL    HW234959   1.332   8.834   4.127  1.0858 -0.8450 -1.0039
10989SOL     OW34960   5.044   5.322   4.257  0.2963 -0.0189  0.0288
10989SOL    HW134961   5.090   5.329   4.341  1.9438 -3.0271 -0.4575
10989SOL    HW234962   5.104   5.360   4.193  1.2331 -1.9215 -0.3066
10990SOL     OW34963   2.573   6.649   1.682  0.3843  0.5354 -0.0484
10990SOL    HW134964   2.572   6.625   1.589  0.2561 -2.3642  0.6127
10990SOL    HW234965   2.662   6.680   1.698  0.6737  0.1813 -0.9340
10991SOL     OW34966   4.378   8.203   8.302 -0.1434  0.1801 -0.1567
10991SOL    HW134967   4.421   8.288   8.311  1.8002 -0.6702 -0.7785
10991SOL    HW234968   4.294   8.223   8.262 -1.0984  2.0844  2.4651
10992SOL     OW34969   2.930   3.520   2.286  0.0740  0.3630  0.0319
10992SOL    HW134970   2.945   3.517   2.192  0.4305  0.1731  0.0943
10992SOL    HW234971   2.939   3.429   2.316  0.5839  0.5051  0.3386
10993SOL     OW34972   7.758   2.043   8.733 -0.5611 -0.1781 -0.4624
10993SOL    HW134973   7.756   2.048   8.829 -1.3831  0.2752 -0.4953
10993SOL    HW234974   7.781   2.131   8.705  0.1545 -0.4258 -0.6822
10994SOL     OW34975   8.032   7.730   0.871 -0.6322 -0.8399 -0.8688
10994SOL    HW134976   7.939   7.719   0.853 -0.6711  0.1490 -1.3258
10994SOL    HW234977   8.050   7.668   0.942 -1.5822 -1.2014 -0.9321
10995SOL     OW34978   0.644   8.356   4.246  0.3880  0.6412 -0.4713
10995SOL    HW134979   0.598   8.432   4.211  1.5329  1.0400 -1.1611
10995SOL    HW234980   0.734   8.365   4.213  0.5267 -1.0547 -0.6578
10996SOL     OW34981   1.247   1.999   8.390  0.2718 -0.6945 -0.1480
10996SOL    HW134982   1.251   1.908   8.358 -1.3346 -0.8523  0.0037
10996SOL    HW234983   1.309   2.046   8.335 -1.6877 -1.1446 -3.0153
10997SOL     OW34984   1.086   1.292   4.361  0.0567 -0.3513  0.2970
10997SOL    HW134985   1.119   1.211   4.401 -1.6476 -0.3213  1.9167
10997SOL    HW234986   1.034   1.263   4.287  0.4805 -0.6477  0.1104
10998SOL     OW34987   0.284   7.934   4.238 -0.8257 -0.2816 -0.5168
10998SOL    HW134988   0.206   7.981   4.266 -0.7860 -0.2031 -0.5388
10998SOL    HW234989   0.353   8.000   4.236 -0.6722 -0.4303 -0.1202
10999SOL     OW34990   0.057   3.128   4.230 -0.8416  0.1353 -0.1519
10999SOL    HW134991   0.128   3.105   4.170  2.9703  1.5861  3.3384
10999SOL    HW234992   0.049   3.051   4.287 -0.1906  0.9372  1.0477
11000SOL     OW34993   6.172   2.978   7.631 -0.3571 -0.0851 -0.4631
11000SOL    HW134994   6.108   3.050   7.632 -2.5331 -1.7775 -3.1712
11000SOL    HW234995   6.119   2.899   7.627  1.9798 -1.8788  1.4198
11001SOL     OW34996   5.158   6.246   3.595 -0.9090  0.1638  0.0634
11001SOL    HW134997   5.166   6.340   3.581 -0.4799  0.4920  2.1120
11001SOL    HW234998   5.190   6.206   3.514  1.3038  1.7747  0.0549
11002SOL     OW34999   0.566   1.977   6.645 -0.5273  0.2550 -0.1835
11002SOL    HW135000   0.484   1.928   6.642  0.5488 -1.5685 -2.8586
11002SOL    HW235001   0.630   1.916   6.680  0.5498  0.1308 -2.2298
11003SOL     OW35002   4.057   8.753   6.726 -0.6242  0.1167 -0.3049
11003SOL    HW135003   4.067   8.670   6.681 -1.7698 -1.1400  1.5906
11003SOL    HW235004   3.962   8.770   6.724 -0.6205  0.3934  0.9307
11004SOL     OW35005   4.902   0.580   3.729 -0.1974 -0.1054 -0.2796
11004SOL    HW135006   4.921   0.660   3.779  1.6085  0.7531 -2.1434
11004SOL    HW235007   4.989   0.543   3.710 -0.7060 -0.0380 -3.2044
11005SOL     OW35008   8.528   3.699   3.997  0.4537 -0.1619  0.1940
11005SOL    HW135009   8.534   3.605   3.981  0.0990 -0.3554  1.0822
11005SOL    HW235010   8.589   3.715   4.069  2.1293  0.6896 -1.3303
11006SOL     OW35011   6.824   1.503   7.034  0.0454 -0.1889  0.3103
11006SOL    HW135012   6.819   1.593   7.002  0.2519 -0.4429 -0.4738
11006SOL    HW235013   6.880   1.459   6.970 -0.3269 -0.9522  0.5033
11007SOL     OW35014   7.522   4.681   7.459 -0.1269  0.0169 -0.4302
11007SOL    HW135015   7.586   4.745   7.426 -0.1972  1.1259  1.4418
11007SOL    HW235016   7.465   4.664   7.384  1.2376  0.4307 -1.6174
11008SOL     OW35017   1.506   2.487   6.183  0.1910  0.1137 -0.1354
11008SOL    HW135018   1.534   2.399   6.158 -2.8857 -0.5605 -1.6601
11008SOL    HW235019   1.429   2.473   6.239 -0.4730  1.8233 -0.5380
11009SOL     OW35020   3.587   3.715   2.945 -0.5628 -0.0354 -0.0789
11009SOL    HW135021   3.559   3.722   2.854 -1.5044  0.5992  0.2489
11009SOL    HW235022   3.517   3.757   2.996 -0.0279 -0.3237  0.9338
11010SOL     OW35023   8.290   6.290   5.312 -0.2016 -0.4739  0.0577
11010SOL    HW135024   8.237   6.240   5.374  0.1283 -1.0174 -0.0913
11010SOL    HW235025   8.268   6.253   5.226  1.7422 -1.9736  0.1439
11011SOL     OW35026   7.618   2.658   3.064  0.3104 -0.2177 -0.6154
11011SOL    HW135027   7.612   2.596   2.991  1.3255 -1.2832  0.1815
11011SOL    HW235028   7.650   2.606   3.138 -2.5111  0.3582  1.1713
11012SOL     OW35029   3.164   1.971   4.043 -0.2421  0.8993 -0.1246
11012SOL    HW135030   3.177   1.918   4.122  2.5557 -0.4110 -1.3382
11012SOL    HW235031   3.139   1.908   3.975  0.8387  1.4468 -1.0599
11013SOL     OW35032   4.629   0.223   3.152 -0.3340 -0.0765  0.0979
11013SOL    HW135033   4.644   0.317   3.149 -1.6031  0.1166 -0.9903
11013SOL    HW235034   4.609   0.205   3.244 -1.5628  0.9912  0.0755
11014SOL     OW35035   7.866   7.858   4.819  0.3867 -0.0525 -0.0665
11014SOL    HW135036   7.927   7.790   4.791  2.5781  2.2381 -1.2412
11014SOL    HW235037   7.913   7.905   4.888 -1.7237 -0.6108  1.8728
11015SOL     OW35038   0.676   3.694   0.206 -0.3439  0.2489  0.0899
11015SOL    HW135039   0.581   3.690   0.205 -0.4188  1.7249 -0.0881
11015SOL    HW235040   0.698   3.775   0.160  1.1514 -1.7507 -3.0863
11016SOL     OW35041   4.490   0.077   7.288 -0.5468 -0.6060  0.1602
11016SOL    HW135042   4.458   0.118   7.368 -1.9092 -2.1695  0.4491
11016SOL    HW235043   4.412   0.041   7.246  0.4111 -1.6168 -0.8132
11017SOL     OW35044   2.338   0.174   4.814 -0.4687 -0.3802  0.7247
11017SOL    HW135045   2.325   0.100   4.756  0.8644 -0.3393  0.3311
11017SOL    HW235046   2.271   0.165   4.881 -1.0458 -1.2944  0.0392
11018SOL     OW35047   1.616   6.620   3.561 -0.0912  0.3146 -0.2499
11018SOL    HW135048   1.598   6.705   3.602  1.6327 -0.1730  1.6976
11018SOL    HW235049   1.688   6.636   3.501  1.0628  0.0783  1.0125
11019SOL     OW35050   3.373   2.021   1.526 -0.3473  0.0111  0.5088
11019SOL    HW135051   3.428   1.971   1.587  1.0229  1.2641  0.3390
11019SOL    HW235052   3.285   2.015   1.563 -0.2936 -2.6597  0.3921
11020SOL     OW35053   7.065   6.613   5.168  0.4934 -0.6474  0.0352
11020SOL    HW135054   7.158   6.592   5.163  0.7515  0.1421  1.1356
11020SOL    HW235055   7.036   6.575   5.251 -0.4800 -1.9655 -0.8660
11021SOL     OW35056   0.481   5.077   1.590  0.0030  0.2845  0.5788
11021SOL    HW135057   0.503   5.170   1.593 -0.9342  0.5563 -0.4680
11021SOL    HW235058   0.397   5.071   1.636 -0.9120  0.2888 -1.0174
11022SOL     OW35059   0.743   2.636   7.962 -0.2276  0.8813  0.0688
11022SOL    HW135060   0.716   2.610   7.874 -0.9956 -1.5651  0.9510
11022SOL    HW235061   0.673   2.692   7.994 -2.1406 -1.6546  0.6086
11023SOL     OW35062   0.364   6.033   8.564  0.7325 -0.1006 -0.0980
11023SOL    HW135063   0.306   5.958   8.559  0.4177  0.0796  0.6163
11023SOL    HW235064   0.325   6.089   8.632  1.3353  0.3714 -0.1264
11024SOL     OW35065   7.791   5.456   8.081  0.2833  0.0952  0.1630
11024SOL    HW135066   7.698   5.471   8.099 -0.1449 -1.8743 -0.1153
11024SOL    HW235067   7.812   5.516   8.010 -0.9962  0.0157 -0.3145
11025SOL     OW35068   2.529   4.462   6.083 -0.1847 -0.5582 -0.1864
11025SOL    HW135069   2.609   4.490   6.128  0.6332  0.2981 -2.0723
11025SOL    HW235070   2.527   4.367   6.096  1.2098 -0.6123 -0.1603
11026SOL     OW35071   1.721   1.610   5.023  0.8578  0.0203 -0.0575
11026SOL    HW135072   1.641   1.585   5.070 -0.2355  2.1650 -0.6077
11026SOL    HW235073   1.731   1.542   4.956  0.6353 -1.3422  1.2387
11027SOL     OW35074   6.812   5.922   4.683 -0.1416 -0.6612 -0.3716
11027SOL    HW135075   6.757   5.967   4.619 -3.1203 -0.2133  2.2621
11027SOL    HW235076   6.750   5.880   4.743  2.3500 -0.3409  2.7137
11028SOL     OW35077   0.299   6.118   0.880  0.2337 -0.0593  0.3105
11028SOL    HW135078   0.390   6.119   0.908  0.4460  0.6176 -0.3738
11028SOL    HW235079   0.262   6.200   0.914  0.2601  0.3420 -0.6066
11029SOL     OW35080   1.058   8.586   2.213  0.2470 -0.1406  0.3579
11029SOL    HW135081   1.016   8.667   2.184 -1.1394 -1.3697 -1.3116
11029SOL    HW235082   1.143   8.586   2.170  0.8335  1.0334  1.4634
11030SOL     OW35083   8.153   7.050   4.478  0.3824 -0.2311 -0.3591
11030SOL    HW135084   8.157   7.036   4.384  0.2864  1.0337 -0.5676
11030SOL    HW235085   8.121   7.140   4.488 -1.1252 -0.8510  0.8929
11031SOL     OW35086   0.959   5.823   4.059 -0.1183  0.1472 -0.2749
11031SOL    HW135087   0.955   5.845   3.966  1.8654 -0.5349 -0.5750
11031SOL    HW235088   0.916   5.738   4.066 -1.2682  0.7021 -0.3486
11032SOL     OW35089   8.205   1.375   8.846  0.5889  0.1594 -0.0769
11032SOL    HW135090   8.212   1.304   8.783 -0.9452  0.9578 -1.1945
11032SOL    HW235091   8.264   1.443   8.814 -0.2282  0.5853 -0.7302
11033SOL     OW35092   7.980   7.171   6.887 -0.2143 -0.3616  0.3353
11033SOL    HW135093   8.005   7.088   6.926  1.6986  0.0442  0.0701
11033SOL    HW235094   7.975   7.232   6.961 -2.6473 -0.8614  0.6785
11034SOL     OW35095   6.220   0.106   0.125  0.1801 -0.1180 -0.0695
11034SOL    HW135096   6.151   0.058   0.080 -0.8962  1.9715 -0.7946
11034SOL    HW235097   6.216   0.076   0.215  0.4255 -2.2605 -0.7088
11035SOL     OW35098   6.037   8.236   2.591  0.0649  0.4045 -0.5811
11035SOL    HW135099   6.055   8.287   2.670  1.5720 -2.0388  0.7956
11035SOL    HW235100   5.961   8.182   2.615  1.2407 -1.1890 -0.3217
11036SOL     OW35101   0.796   8.324   4.536  0.0966 -0.3539  1.0104
11036SOL    HW135102   0.713   8.336   4.490 -0.3307  0.4357  1.9528
11036SOL    HW235103   0.785   8.244   4.586  0.6342 -1.3283 -0.3656
11037SOL     OW35104   0.367   3.084   6.115  0.0703  0.2035  0.0738
11037SOL    HW135105   0.453   3.055   6.147  0.3286  1.4111  0.5114
11037SOL    HW235106   0.309   3.010   6.133  1.0175 -0.6577 -0.2862
11038SOL     OW35107   7.342   2.633   0.006  0.5793  0.0971  0.3097
11038SOL    HW135108   7.364   2.639   0.099  3.1659 -0.0727 -0.1940
11038SOL    HW235109   7.258   2.587   0.004 -1.2748  3.0172  2.6320
11039SOL     OW35110   4.722   7.297   0.677 -0.0128  0.3636 -0.6630
11039SOL    HW135111   4.809   7.298   0.638 -1.1166  1.2039 -3.3377
11039SOL    HW235112   4.716   7.380   0.725  0.8736 -0.0385  0.1840
11040SOL     OW35113   4.361   1.527   4.078  0.2589  0.5427  0.0226
11040SOL    HW135114   4.410   1.604   4.051  1.4718 -0.1727  0.1044
11040SOL    HW235115   4.269   1.552   4.069  0.6337  1.9358 -0.0810
11041SOL     OW35116   6.130   1.047   3.436  0.5443 -0.3774  0.3302
11041SOL    HW135117   6.068   0.977   3.461 -0.6407  0.4827 -0.1372
11041SOL    HW235118   6.184   1.007   3.368 -0.9939 -0.4577 -0.8982
11042SOL     OW35119   2.697   5.526   8.336  0.6431 -0.1788  0.1347
11042SOL    HW135120   2.650   5.448   8.309  2.1453 -1.3230  0.6702
11042SOL    HW235121   2.772   5.530   8.276 -1.3853  3.1085 -2.5166
11043SOL     OW35122   8.177   1.128   8.700 -0.4845 -0.2538  0.3682
11043SOL    HW135123   8.106   1.135   8.763 -1.2096  0.2180 -0.4771
11043SOL    HW235124   8.222   1.046   8.722 -2.3891 -1.5141 -0.1877
11044SOL     OW35125   2.382   0.488   7.398  1.1019 -0.0176  0.0490
11044SOL    HW135126   2.464   0.449   7.368  0.5050 -0.6332 -0.8200
11044SOL    HW235127   2.316   0.454   7.338 -0.1496 -1.2654  1.9814
11045SOL     OW35128   4.752   2.933   0.879  0.6959  0.3769  0.0819
11045SOL    HW135129   4.811   2.866   0.845  0.7759 -0.0822  1.0908
11045SOL    HW235130   4.793   2.962   0.961  0.4848  1.4118 -0.1528
11046SOL     OW35131   6.410   6.013   6.300  0.0863 -0.1325  0.4366
11046SOL    HW135132   6.498   6.015   6.264  0.3879 -0.5155  1.1274
11046SOL    HW235133   6.385   5.920   6.297 -1.1920  0.2145 -1.8256
11047SOL     OW35134   7.487   2.873   5.943  0.4849  0.1287 -0.4665
11047SOL    HW135135   7.432   2.872   5.865  1.2374 -1.3736 -1.0326
11047SOL    HW235136   7.432   2.836   6.012  0.1790  0.3846 -0.5760
11048SOL     OW35137   6.129   3.106   1.212  0.1257 -0.0934  0.8634
11048SOL    HW135138   6.136   3.199   1.193  1.0929 -0.4131 -0.5310
11048SOL    HW235139   6.134   3.064   1.126 -2.0633 -1.3734  1.2665
11049SOL     OW35140   6.324   5.410   7.119 -0.1807  0.1228 -0.2717
11049SOL    HW135141   6.387   5.338   7.122 -0.6939 -0.4069 -1.5945
11049SOL    HW235142   6.357   5.469   7.052  0.8950  1.7993  1.6485
11050SOL     OW35143   5.870   3.918   0.802 -0.1630  0.2401 -0.1796
11050SOL    HW135144   5.956   3.911   0.760  0.6199  2.0827  0.9638
11050SOL    HW235145   5.809   3.931   0.729  0.8287  0.9415 -0.9181
11051SOL     OW35146   1.809   0.794   1.101 -0.4780 -0.1927 -0.2058
11051SOL    HW135147   1.865   0.854   1.051 -1.0303 -0.7973 -1.6159
11051SOL    HW235148   1.850   0.790   1.187 -0.2930  2.0194 -0.1094
11052SOL     OW35149   2.705   0.674   6.123 -0.1523 -0.5884 -0.0026
11052SOL    HW135150   2.640   0.630   6.068  0.6821  0.1600 -1.6428
11052SOL    HW235151   2.786   0.627   6.105  0.1545 -0.2646  0.5244
11053SOL     OW35152   2.243   2.242   2.442 -0.1294  0.0495 -0.4918
11053SOL    HW135153   2.265   2.314   2.383 -2.3047  0.4414 -0.9051
11053SOL    HW235154   2.325   2.221   2.486  0.7024  2.3473 -0.8258
11054SOL     OW35155   2.277   5.916   1.077  0.2053  0.1487  0.3397
11054SOL    HW135156   2.185   5.897   1.095  0.4460 -1.2952  0.1084
11054SOL    HW235157   2.284   6.011   1.090 -0.7487 -0.0376  2.8401
11055SOL     OW35158   8.174   0.924   7.659  0.5889  0.0155 -0.1139
11055SOL    HW135159   8.223   0.950   7.737  0.8889  0.6159 -0.5044
11055SOL    HW235160   8.145   1.006   7.620  0.0686 -0.2987 -0.4060
11056SOL     OW35161   5.260   7.000   6.207  0.2558 -0.0622  0.3593
11056SOL    HW135162   5.302   6.914   6.213  0.4415 -0.0717 -0.8236
11056SOL    HW235163   5.171   6.980   6.175 -0.0085  0.1121  0.9847
11057SOL     OW35164   3.572   1.830   3.173  0.0215  0.1428  0.2981
11057SOL    HW135165   3.604   1.740   3.167 -0.6168 -0.0348 -0.8111
11057SOL    HW235166   3.478   1.821   3.187  0.0273  0.6347  0.6606
11058SOL     OW35167   2.453   7.244   8.180 -0.3140  0.6619 -0.0904
11058SOL    HW135168   2.450   7.166   8.124  0.2222  1.0613 -0.7039
11058SOL    HW235169   2.427   7.316   8.122  1.0840  1.2079 -0.0887
11059SOL     OW35170   1.139   7.145   3.908  0.1873  0.4935  0.1085
11059SOL    HW135171   1.062   7.166   3.855  0.2338 -0.0679 -0.1777
11059SOL    HW235172   1.135   7.208   3.980 -0.0406  1.0626 -0.3887
11060SOL     OW35173   2.049   7.239   0.814 -0.2066  0.0545  0.3058
11060SOL    HW135174   2.078   7.204   0.730  0.0411 -0.3358  0.5495
11060SOL    HW235175   1.997   7.169   0.853  2.2826 -1.0536  1.8637
11061SOL     OW35176   0.044   1.085   4.843 -0.0160 -0.1347  0.1931
11061SOL    HW135177   0.096   1.032   4.782 -1.3025 -0.8868 -0.2691
11061SOL    HW235178   0.099   1.162   4.859  0.2531  0.2496 -2.1736
11062SOL     OW35179   1.865   4.003   4.638 -0.3275  0.3268 -0.5333
11062SOL    HW135180   1.880   3.950   4.716  0.4282  1.3987  0.0964
11062SOL    HW235181   1.840   3.941   4.570 -4.8320 -0.3696  1.4070
11063SOL     OW35182   5.070   1.898   6.729 -0.5285 -0.6371 -0.6284
11063SOL    HW135183   5.148   1.860   6.688 -0.4391  0.9470 -1.9997
11063SOL    HW235184   5.088   1.992   6.732 -1.6198 -0.4363  0.7658
11064SOL     OW35185   5.762   3.799   2.773 -0.0442 -0.2153 -0.3032
11064SOL    HW135186   5.675   3.821   2.807  0.4043 -0.9491  1.4567
11064SOL    HW235187   5.748   3.776   2.681 -1.5359  0.6482 -0.3132
11065SOL     OW35188   0.425   5.835   3.365 -0.4670  0.0843  0.1497
11065SOL    HW135189   0.373   5.755   3.376 -0.9597  0.2157 -1.0522
11065SOL    HW235190   0.505   5.805   3.321 -0.4791  0.1892  0.0557
11066SOL     OW35191   8.714   3.160   3.247 -0.5281  0.0442  0.0772
11066SOL    HW135192   8.652   3.088   3.235 -2.0292  1.2349  0.4884
11066SOL    HW235193   8.678   3.212   3.318  1.8224 -0.1064  1.4825
11067SOL     OW35194   1.958   2.164   4.357 -0.2355 -0.1893  0.6769
11067SOL    HW135195   2.001   2.080   4.344  0.6527  0.3752 -0.1503
11067SOL    HW235196   2.016   2.212   4.416 -0.0722  0.3307  0.0955
11068SOL     OW35197   5.036   1.963   2.051  0.6422 -0.3104  0.1505
11068SOL    HW135198   5.116   1.976   2.000  0.1935 -1.0689 -0.7805
11068SOL    HW235199   4.993   1.888   2.010  0.7826 -1.6794  2.3188
11069SOL     OW35200   1.725   6.819   5.506 -0.3629  0.1114 -0.1598
11069SOL    HW135201   1.765   6.734   5.485  0.9909  0.3493  1.3242
11069SOL    HW235202   1.792   6.865   5.557 -2.6446  0.3809  2.8032
11070SOL     OW35203   8.397   5.474   6.158 -0.3030 -0.1345 -0.0296
11070SOL    HW135204   8.424   5.446   6.071 -1.8984  0.3444 -0.7213
11070SOL    HW235205   8.354   5.558   6.144 -1.8520 -0.7117  0.9969
11071SOL     OW35206   7.988   1.403   2.826 -0.0401  0.5270  0.6243
11071SOL    HW135207   7.979   1.463   2.752 -0.6806 -0.3975 -0.0534
11071SOL    HW235208   7.998   1.461   2.902  0.2908  1.4825 -0.1293
11072SOL     OW35209   1.753   6.958   6.341 -0.0313 -0.2899 -0.3124
11072SOL    HW135210   1.688   6.953   6.271  0.4244  0.2885 -0.7757
11072SOL    HW235211   1.742   7.046   6.378  0.8202 -0.0114 -0.7137
11073SOL     OW35212   1.712   5.677   5.922 -0.1280  0.3214 -0.4251
11073SOL    HW135213   1.697   5.591   5.962 -0.2802  0.1858 -0.7717
11073SOL    HW235214   1.776   5.660   5.853  1.1039  0.7662  0.5650
11074SOL     OW35215   3.019   7.802   4.627  0.3430 -0.4023  0.1128
11074SOL    HW135216   3.012   7.707   4.632  0.2837 -0.3479  1.3532
11074SOL    HW235217   2.967   7.834   4.701 -0.8188  0.6596 -1.1122
11075SOL     OW35218   5.187   6.307   1.776  0.3483 -0.2037 -0.0107
11075SOL    HW135219   5.278   6.284   1.796  0.3449 -0.7720 -0.5862
11075SOL    HW235220   5.188   6.402   1.763  1.1424 -0.3572 -1.3271
11076SOL     OW35221   3.501   3.387   2.244 -0.2216  0.0924  0.6591
11076SOL    HW135222   3.541   3.308   2.207 -1.2010 -0.1349  0.0120
11076SOL    HW235223   3.411   3.360   2.263 -0.9558  1.3648 -0.7442
11077SOL     OW35224   7.669   5.654   0.561 -0.3117  0.6419 -1.0333
11077SOL    HW135225   7.624   5.579   0.600 -0.9739  0.0993 -2.7118
11077SOL    HW235226   7.718   5.694   0.632 -0.6635 -0.8666  0.0864
11078SOL     OW35227   6.738   0.342   4.774  0.5138 -0.5476  0.0026
11078SOL    HW135228   6.673   0.411   4.762 -1.2299 -2.4305 -2.3127
11078SOL    HW235229   6.710   0.296   4.853 -0.4591 -0.7582 -0.4493
11079SOL     OW35230   6.159   7.461   3.446  0.6085 -0.1765 -0.2297
11079SOL    HW135231   6.201   7.450   3.531  0.1150  0.1710  0.0660
11079SOL    HW235232   6.177   7.551   3.421 -0.1959  0.0773  0.0465
11080SOL     OW35233   7.298   2.589   5.731  0.7016  0.3145 -0.0944
11080SOL    HW135234   7.206   2.610   5.744  0.0830 -2.4200  0.5251
11080SOL    HW235235   7.299   2.537   5.650  1.7383  0.4863 -0.2017
11081SOL     OW35236   2.360   7.462   5.688  0.2065 -0.3765  0.2094
11081SOL    HW135237   2.382   7.431   5.601  0.6479 -1.7961  0.7921
11081SOL    HW235238   2.445   7.487   5.727 -0.2253  3.0237 -0.6941
11082SOL     OW35239   7.174   5.838   5.848  0.3086 -0.1063 -0.0234
11082SOL    HW135240   7.101   5.884   5.891 -1.2616 -0.6272 -1.9556
11082SOL    HW235241   7.180   5.755   5.895 -1.3078 -0.6354 -0.6891
11083SOL     OW35242   2.967   0.003   2.967 -0.1760 -0.2548  0.2539
11083SOL    HW135243   2.893   0.044   3.011 -0.6110 -1.6572  0.8502
11083SOL    HW235244   2.941   0.000   2.875 -0.9111 -0.8177  0.4719
11084SOL     OW35245   0.384   0.007   2.697 -0.2667  0.4526  0.1091
11084SOL    HW135246   0.450  -0.060   2.677  0.5029  0.3565  2.5257
11084SOL    HW235247   0.301  -0.041   2.701 -0.1470  0.1585 -0.7588
11085SOL     OW35248   1.376   1.545   6.985 -0.2051  0.5868  0.8087
11085SOL    HW135249   1.310   1.539   6.916 -0.6820  1.8089  1.1317
11085SOL    HW235250   1.439   1.476   6.964 -0.1077  1.1918 -1.1098
11086SOL     OW35251   3.136   1.527   5.919 -0.4124 -0.1398  0.5311
11086SOL    HW135252   3.151   1.544   5.826 -0.5563 -1.2241  0.2909
11086SOL    HW235253   3.045   1.495   5.922 -0.8478  1.1236  1.2229
11087SOL     OW35254   0.301   2.799   6.573  0.3518 -0.8574  0.3620
11087SOL    HW135255   0.362   2.857   6.528  0.1692 -0.7004  0.3116
11087SOL    HW235256   0.230   2.786   6.510  0.0192 -0.5056  0.6625
11088SOL     OW35257   2.574   1.589   5.895  0.5080 -0.3149 -0.1925
11088SOL    HW135258   2.531   1.537   5.827 -0.5778  0.1296  0.1289
11088SOL    HW235259   2.527   1.568   5.975 -0.1700  1.3491 -0.1017
11089SOL     OW35260   0.403   3.860   7.334  0.6514 -0.1042  0.4449
11089SOL    HW135261   0.437   3.902   7.255 -1.6082 -1.7145 -1.5333
11089SOL    HW235262   0.310   3.847   7.316  0.3742 -1.9812  2.7216
11090SOL     OW35263   2.868   3.451   4.334 -0.2192 -0.2982  0.0161
11090SOL    HW135264   2.821   3.442   4.251 -1.1533  0.0235  0.4982
11090SOL    HW235265   2.884   3.361   4.362 -0.1395 -0.4086 -0.3757
11091SOL     OW35266   6.070   8.840   4.473 -0.4151 -0.5727  0.3203
11091SOL    HW135267   6.034   8.925   4.497 -0.0722 -0.9682  2.4365
11091SOL    HW235268   6.011   8.777   4.514  0.6599 -1.2762  0.8591
11092SOL     OW35269   2.807   4.746   2.713 -0.1435 -0.4458  0.1814
11092SOL    HW135270   2.854   4.829   2.714 -1.2228  0.1924  0.5637
11092SOL    HW235271   2.873   4.680   2.731  0.8839  0.2453 -0.9139
11093SOL     OW35272   7.221   4.103   7.821 -0.7489  0.3635 -0.4923
11093SOL    HW135273   7.171   4.132   7.897 -0.0315 -0.9350  0.5243
11093SOL    HW235274   7.177   4.144   7.746 -2.5537  0.2787  0.4597
11094SOL     OW35275   7.528   0.004   1.160 -0.1020 -0.3086  0.2354
11094SOL    HW135276   7.562   0.047   1.239 -1.3914 -0.0074  0.6559
11094SOL    HW235277   7.539  -0.089   1.178  2.9855 -0.2589 -0.8045
11095SOL     OW35278   8.632   1.349   3.369 -0.5667  0.0182  0.1971
11095SOL    HW135279   8.722   1.318   3.374  1.0405  2.9441 -4.3206
11095SOL    HW235280   8.633   1.433   3.417 -1.8844 -1.2697  2.7059
11096SOL     OW35281   1.850   4.996   1.355 -0.3888 -0.7527 -0.3710
11096SOL    HW135282   1.850   4.997   1.450 -1.4411 -0.5329 -0.3547
11096SOL    HW235283   1.912   4.927   1.331 -0.3432 -1.0172  0.4798
11097SOL     OW35284   5.978   0.329   7.444  0.0860 -0.1256 -0.1391
11097SOL    HW135285   5.999   0.245   7.486 -1.8563 -0.6669 -0.1513
11097SOL    HW235286   5.915   0.370   7.504 -1.1484  0.0238 -1.4967
11098SOL     OW35287   7.450   4.457   8.608  0.2553  0.1338  0.4113
11098SOL    HW135288   7.423   4.457   8.700 -0.0285  1.3139  0.3463
11098SOL    HW235289   7.502   4.537   8.598  1.5050 -0.7196 -0.1290
11099SOL     OW35290   4.883   3.629   4.163  0.5251  0.2264 -0.3598
11099SOL    HW135291   4.970   3.590   4.172  0.1641 -0.3928  0.6043
11099SOL    HW235292   4.858   3.610   4.072  0.5399 -1.4586 -0.0503
11100SOL     OW35293   8.352   6.293   6.507 -0.0649  0.1822 -0.9616
11100SOL    HW135294   8.334   6.384   6.482  0.6747  0.7403  0.4173
11100SOL    HW235295   8.443   6.279   6.481 -0.7367 -0.8354 -2.9406
11101SOL     OW35296   7.189   3.134   0.884  0.1802  0.7221  0.4294
11101SOL    HW135297   7.137   3.199   0.836  0.7537 -0.2035 -1.5483
11101SOL    HW235298   7.271   3.178   0.904  0.9795  0.3399 -1.8238
11102SOL     OW35299   1.372   1.086   3.280  0.2517  0.3151  0.4449
11102SOL    HW135300   1.367   1.147   3.206  0.0599  1.1770  1.1586
11102SOL    HW235301   1.282   1.058   3.295  0.6235 -2.8088 -1.9978
11103SOL     OW35302   2.192   3.316   6.613 -0.0515  0.3713  0.4385
11103SOL    HW135303   2.236   3.316   6.698  0.2869 -0.5835  0.2707
11103SOL    HW235304   2.117   3.258   6.625 -0.2301  0.5531  0.1996
11104SOL     OW35305   4.931   5.835   6.357 -0.6002  0.2371  0.5139
11104SOL    HW135306   4.852   5.876   6.394 -0.4867 -1.3106  2.6563
11104SOL    HW235307   4.897   5.772   6.294 -1.0037  0.5764  0.3857
11105SOL     OW35308   5.233   6.265   4.035  0.0266  0.2961  0.0453
11105SOL    HW135309   5.252   6.177   4.067  1.0805  0.2268 -0.7035
11105SOL    HW235310   5.305   6.285   3.975 -0.1124  1.7246  0.3079
11106SOL     OW35311   3.303   5.857   2.402 -0.0677  0.1878 -0.2278
11106SOL    HW135312   3.343   5.941   2.421  0.8841 -0.4609  0.7713
11106SOL    HW235313   3.251   5.837   2.480 -0.9753  0.2311 -0.8061
11107SOL     OW35314   8.316   3.705   1.571 -0.1133 -0.6706 -0.1059
11107SOL    HW135315   8.241   3.670   1.523  0.5573 -1.4949 -0.5772
11107SOL    HW235316   8.391   3.657   1.537  0.3429 -1.6679  2.1079
11108SOL     OW35317   4.011   6.407   4.314  1.1029  1.0620 -0.0206
11108SOL    HW135318   4.001   6.445   4.226 -2.2388  2.1727  0.6841
11108SOL    HW235319   3.941   6.342   4.319  1.7061  0.5009  1.6014
11109SOL     OW35320   3.158   8.261   6.516 -0.7309  0.5560  0.7451
11109SOL    HW135321   3.215   8.197   6.559  0.9211  1.8651  0.6031
11109SOL    HW235322   3.072   8.219   6.516  0.4218 -2.0291 -0.1530
11110SOL     OW35323   8.497   3.360   2.547 -0.0104  0.4586  0.2636
11110SOL    HW135324   8.481   3.350   2.641 -0.7148  0.2998  0.1352
11110SOL    HW235325   8.409   3.361   2.508  0.2673  0.8171 -0.3639
11111SOL     OW35326   7.084   1.074   5.256  0.1787  0.2837  0.1835
11111SOL    HW135327   7.160   1.102   5.307  1.0573 -0.3430 -0.7521
11111SOL    HW235328   7.038   1.156   5.236  0.5090  0.6537  0.9052
11112SOL     OW35329   6.222   0.514   0.296 -0.0169  0.1445  0.1433
11112SOL    HW135330   6.214   0.451   0.367  0.1059  0.4648  0.4459
11112SOL    HW235331   6.150   0.493   0.236 -0.6425  0.4210  0.7924
11113SOL     OW35332   6.171   4.048   8.185 -0.4993  0.0222  0.0825
11113SOL    HW135333   6.227   3.983   8.227 -1.9682 -1.5522 -0.2737
11113SOL    HW235334   6.161   4.016   8.095 -0.9225  0.9587 -0.2196
11114SOL     OW35335   4.549   0.254   4.654  0.4569 -0.0863 -0.4594
11114SOL    HW135336   4.584   0.165   4.665  0.2946  0.0191  1.0642
11114SOL    HW235337   4.602   0.308   4.712 -0.7623  0.4589  0.1886
11115SOL     OW35338   3.795   3.039   2.547  0.2979 -0.2654  0.0342
11115SOL    HW135339   3.812   2.977   2.477 -0.1032 -2.6452  1.9399
11115SOL    HW235340   3.720   3.090   2.517  0.1297 -1.2219 -1.2223
11116SOL     OW35341   5.031   7.195   0.314  1.1094 -0.6705 -0.0692
11116SOL    HW135342   5.046   7.290   0.323 -0.4444 -0.2758 -1.2186
11116SOL    HW235343   5.042   7.178   0.220 -0.5724 -1.2373 -0.1911
11117SOL     OW35344   5.489   5.960   4.350 -0.4275  0.2401 -0.0368
11117SOL    HW135345   5.480   6.055   4.353 -1.0630  0.1623  1.1209
11117SOL    HW235346   5.439   5.929   4.426  0.0241 -0.9976 -0.2274
11118SOL     OW35347   6.561   3.741   6.228 -0.1148  0.3296 -0.1431
11118SOL    HW135348   6.510   3.685   6.287 -2.0399  1.5956 -0.5020
11118SOL    HW235349   6.499   3.808   6.199  1.1449  0.5982 -2.4959
11119SOL     OW35350   0.410   6.468   3.937 -0.5027 -0.1239 -0.0541
11119SOL    HW135351   0.346   6.462   4.007  0.6194  0.5182  1.0674
11119SOL    HW235352   0.400   6.557   3.903 -1.0769 -0.4489 -0.7574
11120SOL     OW35353   1.322   2.585   8.236 -0.0114 -0.3355 -0.0764
11120SOL    HW135354   1.314   2.569   8.142  2.3129 -1.9108 -0.0829
11120SOL    HW235355   1.375   2.664   8.242  0.7273 -0.8128 -0.1330
11121SOL     OW35356   4.344   2.620   3.418  0.0636 -0.4938  0.0226
11121SOL    HW135357   4.396   2.558   3.469 -0.1667 -2.0450 -1.5262
11121SOL    HW235358   4.254   2.601   3.442  0.0899  1.0516  1.4619
11122SOL     OW35359   6.168   0.275   5.846  0.3968  0.1768  1.0215
11122SOL    HW135360   6.076   0.274   5.820  0.9148 -0.8928 -0.9671
11122SOL    HW235361   6.207   0.344   5.793  1.1505 -0.8293  0.2447
11123SOL     OW35362   0.736   0.075   6.604 -0.4126 -0.7117 -0.9978
11123SOL    HW135363   0.710   0.139   6.670 -0.6703 -0.8296 -0.9812
11123SOL    HW235364   0.660   0.067   6.546  0.2143  0.2204 -1.9764
11124SOL     OW35365   6.095   5.356   7.708  0.3134 -0.0854  0.6812
11124SOL    HW135366   6.143   5.315   7.636 -1.5822 -0.9387 -0.1688
11124SOL    HW235367   6.037   5.418   7.666 -0.0064  0.2444  1.5867
11125SOL     OW35368   8.735   6.759   2.995 -0.1963 -0.0314  0.1088
11125SOL    HW135369   8.649   6.798   3.008  0.0207  0.1421  1.1491
11125SOL    HW235370   8.792   6.805   3.057  0.2710 -1.3081  0.6608
11126SOL     OW35371   2.902   1.284   0.479 -0.4898  0.1636  0.2397
11126SOL    HW135372   2.892   1.245   0.392  0.2601 -0.5527  0.4645
11126SOL    HW235373   2.944   1.368   0.463  0.7687 -0.4903 -0.0075
11127SOL     OW35374   0.760   5.103   4.078  0.6852 -0.4874 -0.1272
11127SOL    HW135375   0.815   5.090   4.001 -0.2427  1.5102 -1.2110
11127SOL    HW235376   0.804   5.054   4.148  2.1991 -1.3719 -1.6258
11128SOL     OW35377   7.723   3.636   1.287  0.2699 -0.3076  0.1394
11128SOL    HW135378   7.654   3.682   1.335 -1.0310  2.2589 -3.7795
11128SOL    HW235379   7.798   3.694   1.292  0.7619 -0.9763  0.6613
11129SOL     OW35380   5.221   7.594   3.759 -0.0226  0.6960  0.0677
11129SOL    HW135381   5.198   7.584   3.852  0.7552 -0.5885  0.1487
11129SOL    HW235382   5.182   7.518   3.717  1.6103  0.0052 -0.2531
11130SOL     OW35383   2.403   3.526   0.395  0.3530 -0.4190  0.1134
11130SOL    HW135384   2.391   3.506   0.302  1.8295 -0.7260 -0.0360
11130SOL    HW235385   2.441   3.447   0.432 -2.7486 -1.3642  1.6246
11131SOL     OW35386   2.278   1.486   2.302  0.4765 -0.1624  0.5297
11131SOL    HW135387   2.358   1.437   2.321 -0.6827 -1.7612  1.4502
11131SOL    HW235388   2.265   1.542   2.378 -0.2967 -1.3032  1.2472
11132SOL     OW35389   4.495   5.001   5.883  0.0429 -0.3594  0.0947
11132SOL    HW135390   4.489   5.073   5.820 -2.0558 -0.9048 -0.3950
11132SOL    HW235391   4.423   4.942   5.860 -0.9241 -0.5107  3.0968
11133SOL     OW35392   4.625   7.624   1.711  0.0358  0.2193  0.1727
11133SOL    HW135393   4.684   7.614   1.786 -0.4807  0.2453  0.5934
11133SOL    HW235394   4.660   7.700   1.664  2.2270 -1.6483 -1.4008
11134SOL     OW35395   3.590   2.299   2.623 -0.3919  0.3985 -0.2271
11134SOL    HW135396   3.623   2.243   2.693 -0.8434  0.6356  0.1731
11134SOL    HW235397   3.501   2.320   2.648 -0.3301  1.0553 -0.5312
11135SOL     OW35398   5.973   6.839   0.456 -0.1840 -0.0907  0.8026
11135SOL    HW135399   6.024   6.825   0.377 -0.8921  2.0309 -0.0855
11135SOL    HW235400   5.897   6.889   0.428  0.0611  1.6628  2.9528
11136SOL     OW35401   0.854   3.754   1.298  0.3684  0.1310  0.4864
11136SOL    HW135402   0.871   3.672   1.251 -0.2188  1.1415 -1.6339
11136SOL    HW235403   0.782   3.734   1.357  0.7561 -1.0726  0.5662
11137SOL     OW35404   4.925   1.201   2.649 -0.5480 -0.5948  0.0190
11137SOL    HW135405   5.012   1.186   2.612 -1.8653 -1.7029 -2.9605
11137SOL    HW235406   4.939   1.264   2.719  2.4675  0.2379 -1.1790
11138SOL     OW35407   4.754   0.481   0.171 -0.2229 -0.4318  0.0417
11138SOL    HW135408   4.812   0.526   0.111 -1.5911 -0.2007 -1.1695
11138SOL    HW235409   4.742   0.543   0.244  0.3303 -0.1262 -0.1273
11139SOL     OW35410   8.114   8.456   7.287 -0.2687  0.5374  0.3359
11139SOL    HW135411   8.128   8.457   7.192 -1.7871 -0.7510  0.0369
11139SOL    HW235412   8.173   8.522   7.321  0.3238  1.0295 -1.5135
11140SOL     OW35413   8.521   2.856   2.092 -0.3957 -0.7666 -0.4369
11140SOL    HW135414   8.473   2.801   2.154 -0.0564 -0.3769  0.1782
11140SOL    HW235415   8.611   2.823   2.094  0.2262  0.9218  1.2821
11141SOL     OW35416   1.791   8.682   7.945  0.0214 -0.2459  0.3122
11141SOL    HW135417   1.741   8.702   8.025  0.7035 -2.0349  1.2387
11141SOL    HW235418   1.853   8.614   7.972  0.7321 -0.4024 -1.5981
11142SOL     OW35419   8.412   1.423   6.665 -0.5290  1.1265 -0.3467
11142SOL    HW135420   8.374   1.358   6.723  1.4666  2.2178  2.4473
11142SOL    HW235421   8.364   1.503   6.684  0.0261  1.4569 -0.2923
11143SOL     OW35422   1.384   3.727   4.380 -0.2350  0.5489 -0.7035
11143SOL    HW135423   1.388   3.632   4.370  0.4392  0.3808  0.8129
11143SOL    HW235424   1.297   3.752   4.348 -1.2688 -0.8703  0.8665
11144SOL     OW35425   6.383   6.940   0.130 -0.4187  0.3897  0.3262
11144SOL    HW135426   6.471   6.948   0.167 -0.2171 -1.2459  0.2525
11144SOL    HW235427   6.392   6.874   0.062 -1.6216  0.5532 -0.0117
11145SOL     OW35428   1.639   3.009   3.379  0.3537 -0.1222  0.2202
11145SOL    HW135429   1.618   2.920   3.349 -0.4849 -0.4247  1.5827
11145SOL    HW235430   1.733   3.008   3.395  0.8210  0.0421 -2.2353
11146SOL     OW35431   3.844   4.073   2.774  0.6419  0.2208 -0.0429
11146SOL    HW135432   3.896   3.996   2.751 -0.0482 -0.3941  0.4271
11146SOL    HW235433   3.792   4.092   2.696 -0.3438 -0.7488  0.3651
11147SOL     OW35434   5.831   3.430   8.104  0.1478  0.4596 -0.1523
11147SOL    HW135435   5.834   3.499   8.170 -1.1024  0.7010 -0.3203
11147SOL    HW235436   5.765   3.460   8.041 -1.3208 -1.4251  0.4004
11148SOL     OW35437   1.411   7.235   7.130  0.2477 -0.6293 -0.1040
11148SOL    HW135438   1.428   7.240   7.224 -0.2174 -0.2429 -0.0361
11148SOL    HW235439   1.321   7.205   7.124 -0.1181  0.5055 -0.4085
11149SOL     OW35440   6.263   3.996   4.484  0.4925  0.5757  0.0036
11149SOL    HW135441   6.230   3.959   4.403 -0.5064  0.7961  0.3024
11149SOL    HW235442   6.299   4.081   4.459 -2.7556  2.1549  0.2431
11150SOL     OW35443   1.580   2.233   6.152 -0.2087 -0.1083 -0.0721
11150SOL    HW135444   1.654   2.181   6.120  2.1106  0.9436  3.0635
11150SOL    HW235445   1.539   2.177   6.218  0.0135  0.6298  0.6996
11151SOL     OW35446   1.318   5.323   4.647  0.3691 -0.3469  0.3121
11151SOL    HW135447   1.229   5.304   4.676  0.6864 -0.3159  1.3461
11151SOL    HW235448   1.373   5.302   4.722  1.3375 -1.2066 -0.5877
11152SOL     OW35449   1.895   0.426   3.656  0.3520  0.3179  0.4919
11152SOL    HW135450   1.967   0.439   3.718 -0.0950 -0.4603  1.1998
11152SOL    HW235451   1.870   0.334   3.668 -0.6247  0.5231  0.1214
11153SOL     OW35452   2.221   6.344   2.148 -0.2495 -0.1764 -0.3524
11153SOL    HW135453   2.218   6.329   2.053  1.9101 -0.3605 -0.4299
11153SOL    HW235454   2.135   6.381   2.168 -0.6957  0.0581 -2.4085
11154SOL     OW35455   4.745   7.826   6.782  0.0435 -0.2071 -0.1932
11154SOL    HW135456   4.752   7.732   6.763  1.6936 -0.1598  0.0327
11154SOL    HW235457   4.663   7.835   6.829 -1.0689 -1.2454 -1.8193
11155SOL     OW35458   1.758   0.652   3.673  0.1588  0.0424  0.1183
11155SOL    HW135459   1.811   0.575   3.653 -2.9247 -1.6727 -2.3144
11155SOL    HW235460   1.792   0.720   3.616  0.8066 -0.4990 -0.1592
11156SOL     OW35461   1.250   8.455   7.929  0.0258 -0.8629  0.4940
11156SOL    HW135462   1.345   8.459   7.922  0.0254 -0.3115  0.7587
11156SOL    HW235463   1.228   8.524   7.991 -0.5797 -0.7065  0.1135
11157SOL     OW35464   7.794   6.228   2.969  0.4519  0.1115 -0.3257
11157SOL    HW135465   7.701   6.206   2.960  0.3513  0.1747  0.4572
11157SOL    HW235466   7.795   6.324   2.969  0.3514  0.1382  0.9806
11158SOL     OW35467   8.846   1.089   6.558  0.1009 -0.0866 -0.3066
11158SOL    HW135468   8.830   0.995   6.559  0.4607 -0.1560  0.7553
11158SOL    HW235469   8.940   1.097   6.573  0.3877  0.4150 -2.1263
11159SOL     OW35470   4.103   8.087   7.313 -0.4239  0.2270  0.7144
11159SOL    HW135471   4.184   8.136   7.301 -0.2494  0.0612  1.1838
11159SOL    HW235472   4.036   8.142   7.272  0.4125 -1.4261 -3.3749
11160SOL     OW35473   3.061   0.783   3.699  0.4597 -0.1838  0.5280
11160SOL    HW135474   3.033   0.695   3.674  1.0198 -0.1408 -0.2897
11160SOL    HW235475   3.128   0.806   3.635  0.4410  0.7749  0.8376
11161SOL     OW35476   3.704   3.791   6.502 -0.2758 -0.7189 -0.4067
11161SOL    HW135477   3.718   3.764   6.411  0.5280 -2.4615  0.2000
11161SOL    HW235478   3.611   3.815   6.505 -0.0384  0.5839 -1.9564
11162SOL     OW35479   0.945   4.690   7.763  0.1412 -0.4066  0.2946
11162SOL    HW135480   0.979   4.657   7.847 -1.3782  1.0005  1.5383
11162SOL    HW235481   0.996   4.643   7.697  1.7389 -1.2311  1.9932
11163SOL     OW35482   6.180   6.382   5.063 -0.3650  0.6648 -0.1568
11163SOL    HW135483   6.262   6.407   5.106 -1.2095  1.8487  0.8402
11163SOL    HW235484   6.206   6.358   4.974  1.0688  0.9196  0.1617
11164SOL     OW35485   4.334   3.933   5.979  0.1146  0.1445  0.2144
11164SOL    HW135486   4.316   3.957   5.888 -1.5553 -0.4957  0.3481
11164SOL    HW235487   4.401   3.865   5.974  0.2980  0.3799 -0.5182
11165SOL     OW35488   1.221   1.576   1.362  0.3791 -0.0211  0.1011
11165SOL    HW135489   1.181   1.662   1.368 -0.9491 -0.6653  1.2394
11165SOL    HW235490   1.314   1.593   1.346  0.0968  1.5909  0.0111
11166SOL     OW35491   4.697   6.180   5.158  0.2980  0.1690 -0.5778
11166SOL    HW135492   4.625   6.131   5.199  1.4589 -0.6963  0.4959
11166SOL    HW235493   4.653   6.252   5.112 -1.1115  1.3537  2.3285
11167SOL     OW35494   8.041   4.657   4.344 -0.1259  0.3469  0.7316
11167SOL    HW135495   8.135   4.675   4.347 -0.3241  1.3292  1.6059
11167SOL    HW235496   8.009   4.712   4.273  0.1742 -1.1989 -0.6649
11168SOL     OW35497   8.534   4.396   3.279 -0.3860 -0.7125 -0.2874
11168SOL    HW135498   8.491   4.351   3.207 -0.8031 -1.0928  0.1952
11168SOL    HW235499   8.492   4.362   3.358  0.9409 -1.2696  0.2174
11169SOL     OW35500   2.177   4.180   5.819 -0.4182  0.7332  0.2870
11169SOL    HW135501   2.107   4.144   5.874 -0.6869 -1.0039 -1.1187
11169SOL    HW235502   2.151   4.158   5.730  1.5766  0.6932 -0.3224
11170SOL     OW35503   4.660   1.797   1.027 -0.6142  0.2559  0.6038
11170SOL    HW135504   4.584   1.846   1.059  0.1720  1.0611  1.2777
11170SOL    HW235505   4.734   1.855   1.041  0.3129 -1.0011  1.1278
11171SOL     OW35506   3.442   1.524   0.629 -0.2661  0.4405  0.0712
11171SOL    HW135507   3.442   1.459   0.558  0.2407 -1.2948  1.5678
11171SOL    HW235508   3.534   1.548   0.640 -0.5162  1.9984 -0.9141
11172SOL     OW35509   4.582   2.981   0.167 -0.1161  0.2642  0.0315
11172SOL    HW135510   4.517   2.915   0.193  0.7352 -1.5012 -2.0232
11172SOL    HW235511   4.550   3.063   0.206 -1.7971 -1.1310  1.7762
11173SOL     OW35512   6.056   8.327   4.087  0.5216  0.5828 -0.2922
11173SOL    HW135513   6.113   8.255   4.059 -0.5075 -0.1511 -0.5529
11173SOL    HW235514   6.115   8.403   4.093  1.9327 -0.5749  1.4616
11174SOL     OW35515   1.798   3.894   1.203  0.5055  0.4231 -0.4053
11174SOL    HW135516   1.742   3.934   1.136  0.6034  0.9198 -0.1947
11174SOL    HW235517   1.745   3.822   1.238 -0.0719  0.9798 -0.1022
11175SOL     OW35518   1.517   6.744   6.989 -0.3676  0.1806 -0.1138
11175SOL    HW135519   1.552   6.673   6.937  0.3161  0.5345 -0.1426
11175SOL    HW235520   1.459   6.792   6.929  0.0331  0.2976 -0.4068
11176SOL     OW35521   4.289   6.366   1.986  0.0267 -0.1265  0.3463
11176SOL    HW135522   4.255   6.289   2.030 -1.1754  0.0246 -0.2678
11176SOL    HW235523   4.213   6.423   1.975  0.5267  0.3557 -0.8083
11177SOL     OW35524   7.219   5.462   5.322 -0.1371 -0.0502  0.1906
11177SOL    HW135525   7.295   5.450   5.266  0.1269 -2.1215  0.9125
11177SOL    HW235526   7.247   5.524   5.388  0.8029 -0.4691  0.1982
11178SOL     OW35527   3.147   2.524   8.566 -0.4846 -0.4744  0.5253
11178SOL    HW135528   3.055   2.540   8.546  0.4175  2.1020 -2.2871
11178SOL    HW235529   3.179   2.471   8.493  0.3050 -1.3121  1.4467
11179SOL     OW35530   0.676   5.704   0.517  0.0491  0.3254  0.6424
11179SOL    HW135531   0.603   5.697   0.579  0.9995  2.2356  2.0773
11179SOL    HW235532   0.750   5.662   0.561  0.5110  0.8926  0.4161
11180SOL     OW35533   0.020   0.818   6.557  0.1476  0.0367  0.1246
11180SOL    HW135534   0.081   0.810   6.484  0.9525  2.5464  0.4207
11180SOL    HW235535  -0.021   0.732   6.564  1.5552 -0.8750 -1.9297
11181SOL     OW35536   7.639   3.950   6.489 -0.2506  0.4281  0.3250
11181SOL    HW135537   7.623   3.941   6.583  2.8240 -0.8249  0.8469
11181SOL    HW235538   7.705   4.020   6.483  1.5379 -1.2476 -0.5767
11182SOL     OW35539   7.411   3.257   6.179 -0.1141 -0.1354 -0.1006
11182SOL    HW135540   7.392   3.350   6.166  2.9635  0.6746  0.3485
11182SOL    HW235541   7.401   3.244   6.273 -0.7014 -0.3254 -0.1846
11183SOL     OW35542   5.859   4.652   1.973  0.0038  0.1588 -0.3959
11183SOL    HW135543   5.784   4.661   2.031 -0.9105  0.2865 -1.5462
11183SOL    HW235544   5.899   4.739   1.973  1.4255 -0.4254  1.8185
11184SOL     OW35545   0.560   4.060   2.622  0.5687  0.2847 -0.2632
11184SOL    HW135546   0.490   4.034   2.562 -0.1724  1.2750  0.1626
11184SOL    HW235547   0.639   4.022   2.583 -0.2795 -1.5669 -0.3104
11185SOL     OW35548   7.412   0.384   8.722 -0.3341  0.0756 -0.3036
11185SOL    HW135549   7.352   0.411   8.653 -0.6155 -0.5360 -0.3051
11185SOL    HW235550   7.435   0.294   8.700  2.0750  0.8732 -1.3441
11186SOL     OW35551   6.979   1.319   2.806 -0.9152  0.2441 -0.1740
11186SOL    HW135552   6.953   1.401   2.763 -1.1966  0.0679 -0.3390
11186SOL    HW235553   7.001   1.346   2.895  2.1942  1.0531 -1.0680
11187SOL     OW35554   8.739   4.930   6.412 -0.0835 -0.6395  0.5438
11187SOL    HW135555   8.834   4.919   6.418  0.0481 -0.2358 -0.6086
11187SOL    HW235556   8.721   5.010   6.461  0.4134  0.2733 -0.7196
11188SOL     OW35557   5.878   4.597   1.298  0.1265  0.0221 -0.5826
11188SOL    HW135558   5.960   4.642   1.281  0.6796 -1.3275 -1.7507
11188SOL    HW235559   5.888   4.560   1.385  1.0406 -0.6681 -0.9662
11189SOL     OW35560   2.224   2.325   4.163 -0.1727 -0.5719  0.2352
11189SOL    HW135561   2.288   2.290   4.102  0.3516  2.3050 -1.0252
11189SOL    HW235562   2.275   2.358   4.236  0.0073  2.1171 -0.9638
11190SOL     OW35563   1.511   1.630   1.361 -0.1631  0.0371  0.3390
11190SOL    HW135564   1.547   1.630   1.450 -0.3849  2.2119  0.4984
11190SOL    HW235565   1.556   1.559   1.317 -0.7823 -1.7827  2.4501
11191SOL     OW35566   5.663   0.808   4.038  0.1381  0.2752 -0.1334
11191SOL    HW135567   5.751   0.775   4.056  0.3851  0.9970  0.0355
11191SOL    HW235568   5.673   0.856   3.955  0.1917  1.4046  0.5094
11192SOL     OW35569   8.885   4.129   0.893 -0.3687  0.1332 -0.3035
11192SOL    HW135570   8.956   4.116   0.830  1.3752 -1.4079  1.8271
11192SOL    HW235571   8.820   4.063   0.870  1.0747 -1.6451  0.5162
11193SOL     OW35572   7.233   6.692   6.761 -0.3943  0.2367  0.6722
11193SOL    HW135573   7.176   6.654   6.694  0.1430  1.4298 -0.5118
11193SOL    HW235574   7.195   6.778   6.778 -0.1514  0.1965  1.4499
11194SOL     OW35575   1.778   4.045   8.822 -0.2718 -0.2124  0.9046
11194SOL    HW135576   1.782   4.101   8.745 -0.4425  0.6720  1.5283
11194SOL    HW235577   1.747   3.960   8.789 -0.1303  0.0931 -0.0217
11195SOL     OW35578   1.136   1.825   1.438 -0.1485 -0.3917 -0.3612
11195SOL    HW135579   1.054   1.803   1.393  0.1874 -0.8006 -0.7841
11195SOL    HW235580   1.156   1.914   1.408 -0.8061 -0.0035  0.3053
11196SOL     OW35581   7.801   8.239   1.305 -0.1116 -0.1494 -0.1000
11196SOL    HW135582   7.753   8.210   1.383 -1.3670  0.5302 -0.6050
11196SOL    HW235583   7.754   8.199   1.232  0.6955 -0.2726 -0.5630
11197SOL     OW35584   8.319   1.976   3.649 -0.7558 -0.2642  0.0245
11197SOL    HW135585   8.229   1.988   3.678 -0.4648 -1.5605  1.6179
11197SOL    HW235586   8.322   1.885   3.618  0.4264 -0.9293  1.9038
11198SOL     OW35587   4.245   6.312   4.641  0.1206  0.4924  0.0563
11198SOL    HW135588   4.177   6.255   4.676 -0.3547  0.7830 -0.3838
11198SOL    HW235589   4.209   6.400   4.649  0.2631  0.6159 -0.5731
11199SOL     OW35590   4.229   7.165   4.864 -0.0191 -0.3384 -0.3744
11199SOL    HW135591   4.173   7.163   4.941 -0.7803 -0.1197 -0.9114
11199SOL    HW235592   4.205   7.086   4.815  0.9850 -0.8775 -0.0400
11200SOL     OW35593   4.217   5.258   7.780  0.4680  0.6412 -0.1375
11200SOL    HW135594   4.202   5.341   7.824  0.7508  0.2435  0.7327
11200SOL    HW235595   4.265   5.205   7.844  0.6576 -0.0446 -0.8283
11201SOL     OW35596   2.288   1.484   5.400  0.5048  0.0247 -0.1298
11201SOL    HW135597   2.381   1.503   5.383  0.0500  0.2934 -2.8350
11201SOL    HW235598   2.277   1.392   5.375 -0.0800  0.1732 -0.4391
11202SOL     OW35599   5.934   3.153   1.426 -0.1208  0.1237  0.4175
11202SOL    HW135600   5.967   3.163   1.337  1.5495 -0.1587  0.9714
11202SOL    HW235601   5.894   3.238   1.447 -1.2010 -0.0381 -0.8202
11203SOL     OW35602   4.479   6.486   7.269  0.1121  0.5975 -0.7754
11203SOL    HW135603   4.566   6.460   7.301 -0.4371  0.6833  0.8617
11203SOL    HW235604   4.435   6.403   7.251  0.4089  0.5504 -1.3444
11204SOL     OW35605   3.616   3.532   4.926 -0.2589 -0.1957  0.5715
11204SOL    HW135606   3.604   3.458   4.866 -0.5812  0.6571 -0.4446
11204SOL    HW235607   3.688   3.504   4.983  1.2795 -0.3604 -1.3418
11205SOL     OW35608   1.475   8.370   5.877  0.1763  0.1931 -0.6303
11205SOL    HW135609   1.479   8.466   5.883 -0.8037  0.1785  2.2025
11205SOL    HW235610   1.498   8.350   5.787 -1.1010  3.1928 -1.7541
11206SOL     OW35611   6.724   1.750   7.714 -0.9789  0.1914  0.2260
11206SOL    HW135612   6.704   1.669   7.762  1.5024  0.5654  2.1036
11206SOL    HW235613   6.796   1.789   7.764  0.9215  1.3203 -3.1353
11207SOL     OW35614   6.141   4.230   3.503  0.2332  0.0818 -0.3948
11207SOL    HW135615   6.178   4.147   3.473  0.1541  0.5447 -1.8369
11207SOL    HW235616   6.217   4.285   3.522  0.3030  0.2561 -1.1401
11208SOL     OW35617   1.316   5.126   0.397 -0.6430 -0.2758 -0.1762
11208SOL    HW135618   1.351   5.040   0.419 -0.5777  0.0718  1.1756
11208SOL    HW235619   1.257   5.147   0.469 -2.2063 -0.0292 -1.4616
11209SOL     OW35620   1.099   7.818   4.208  0.5195  0.2560  0.0269
11209SOL    HW135621   1.024   7.868   4.178  0.2837 -0.8809 -1.4290
11209SOL    HW235622   1.174   7.855   4.161  0.7654  0.9181  0.9261
11210SOL     OW35623   1.745   2.092   5.865 -0.0996 -0.1650 -0.1681
11210SOL    HW135624   1.825   2.110   5.815  0.1527  0.1123  0.3190
11210SOL    HW235625   1.674   2.105   5.802  0.2450 -0.5428 -0.6404
11211SOL     OW35626   3.587   4.058   5.176  0.4382 -0.5728  0.1880
11211SOL    HW135627   3.588   4.064   5.081  0.5416 -1.5613  0.1221
11211SOL    HW235628   3.588   3.964   5.195  0.9055 -0.3828  1.1666
11212SOL     OW35629   1.306   5.946   4.606 -0.3540  0.5941 -0.4318
11212SOL    HW135630   1.221   5.937   4.650  0.1583  1.3103  0.7367
11212SOL    HW235631   1.285   5.988   4.522 -1.0870  1.3811  0.1288
11213SOL     OW35632   0.119   4.694   2.855 -0.4018 -0.4233 -0.3240
11213SOL    HW135633   0.096   4.700   2.762 -2.8825  1.2670  0.3101
11213SOL    HW235634   0.215   4.687   2.855 -0.2816  0.1282 -2.9982
11214SOL     OW35635   3.039   4.184   0.961  0.5375  0.2544 -0.0222
11214SOL    HW135636   3.014   4.254   0.901  1.1303  0.2978 -0.2288
11214SOL    HW235637   3.058   4.229   1.043 -1.4944  0.0742  0.6130
11215SOL     OW35638   5.723   1.228   8.290 -0.3363 -0.5785 -1.0553
11215SOL    HW135639   5.768   1.257   8.210  0.8952 -0.8057 -0.4695
11215SOL    HW235640   5.736   1.299   8.352  3.3291 -2.4170  0.6324
11216SOL     OW35641   2.940   8.762   5.628 -0.0169  0.4528  0.2016
11216SOL    HW135642   2.905   8.851   5.619 -1.2684  0.0936  1.1879
11216SOL    HW235643   2.863   8.707   5.638  0.7674 -0.6863  0.1460
11217SOL     OW35644   5.030   4.396   1.319  0.3822 -0.7866  0.5005
11217SOL    HW135645   5.114   4.410   1.275  0.2096  1.3773  0.7266
11217SOL    HW235646   4.983   4.334   1.263  1.4847 -0.7484 -0.5098
11218SOL     OW35647   2.680   5.557   2.175  0.3567  0.5204  0.2366
11218SOL    HW135648   2.746   5.562   2.105  1.3626  0.6572  1.1682
11218SOL    HW235649   2.596   5.551   2.129  1.0425  0.0240 -0.9801
11219SOL     OW35650   8.251   7.158   8.473 -0.3590  0.4624 -0.1077
11219SOL    HW135651   8.296   7.241   8.489 -1.0284  1.2980 -2.2682
11219SOL    HW235652   8.305   7.113   8.408 -1.8538  0.8824 -1.7127
11220SOL     OW35653   0.894   5.825   7.468 -0.1261 -0.3030 -0.3078
11220SOL    HW135654   0.823   5.772   7.431  1.0711 -1.3336 -1.2234
11220SOL    HW235655   0.972   5.770   7.461  0.8983  1.0202  0.1101
11221SOL     OW35656   8.124   4.669   2.246  0.4435 -0.5108 -0.2785
11221SOL    HW135657   8.074   4.750   2.261  4.0037  2.0542 -0.9019
11221SOL    HW235658   8.140   4.635   2.334  0.5013  0.6259  0.1773
11222SOL     OW35659   6.597   3.385   2.741 -0.0997 -0.2781  0.2107
11222SOL    HW135660   6.627   3.413   2.655  0.6767 -1.0520  0.2199
11222SOL    HW235661   6.546   3.459   2.774  0.5990  0.4891 -0.4029
11223SOL     OW35662   2.218   0.646   0.285 -0.5905 -0.0157  0.7830
11223SOL    HW135663   2.221   0.740   0.304  2.1995  0.1882 -0.2246
11223SOL    HW235664   2.213   0.640   0.190 -2.2304 -0.9468  0.8898
11224SOL     OW35665   0.677   8.670   5.745  0.2035  0.0453 -0.2303
11224SOL    HW135666   0.672   8.751   5.695  0.1812 -0.1273 -0.5070
11224SOL    HW235667   0.757   8.627   5.715 -0.5219 -0.7206 -1.1247
11225SOL     OW35668   1.197   4.477   0.571 -0.2873 -0.3735  0.3366
11225SOL    HW135669   1.250   4.439   0.502 -1.0128 -0.4755 -0.1819
11225SOL    HW235670   1.115   4.502   0.528 -0.1962  0.9033  0.8652
11226SOL     OW35671   3.528   6.378   1.250 -0.2627 -0.3947  0.2092
11226SOL    HW135672   3.570   6.449   1.298 -2.1963  0.3130  0.9588
11226SOL    HW235673   3.499   6.316   1.317  0.1720 -1.2026 -0.3315
11227SOL     OW35674   8.813   6.887   5.443 -0.0931 -0.4242  0.3143
11227SOL    HW135675   8.772   6.894   5.529  1.3652 -1.5203  1.1452
11227SOL    HW235676   8.889   6.831   5.457 -0.9191 -2.3171 -2.1036
11228SOL     OW35677   4.702   2.198   6.477  0.2225 -0.5868  0.2183
11228SOL    HW135678   4.777   2.166   6.427  1.7628  0.7362  1.5699
11228SOL    HW235679   4.707   2.151   6.560 -1.4733 -1.7122 -0.2609
11229SOL     OW35680   7.168   5.929   6.666 -0.6695  0.0570 -0.0768
11229SOL    HW135681   7.152   5.883   6.583 -0.0036 -3.0096  1.3655
11229SOL    HW235682   7.081   5.958   6.694 -0.9979  0.4738 -1.4477
11230SOL     OW35683   8.859   7.901   6.816  0.3523  0.4164 -0.3404
11230SOL    HW135684   8.773   7.933   6.844  0.4822  2.6429 -2.1894
11230SOL    HW235685   8.848   7.881   6.723  1.4753 -0.7513 -0.2448
11231SOL     OW35686   8.102   6.504   5.500 -0.7892  0.4031 -0.5794
11231SOL    HW135687   8.134   6.418   5.528  1.4642  1.5613  0.6858
11231SOL    HW235688   8.018   6.514   5.545  0.5456  0.2465  2.1224
11232SOL     OW35689   5.629   2.216   4.200 -0.1887 -0.4061  0.5431
11232SOL    HW135690   5.546   2.175   4.227 -0.4558 -0.0374  0.2805
11232SOL    HW235691   5.607   2.307   4.184  0.1973 -0.3847  0.1218
11233SOL     OW35692   4.867   2.454   5.120  0.0660  0.2362 -0.5221
11233SOL    HW135693   4.818   2.388   5.169 -0.5374  1.0035 -0.0694
11233SOL    HW235694   4.811   2.474   5.045  0.2965  0.1598 -0.7147
11234SOL     OW35695   5.071   2.247   4.850 -0.1372 -0.1214  0.5476
11234SOL    HW135696   5.095   2.165   4.807 -2.1056 -1.0131  1.0384
11234SOL    HW235697   5.027   2.298   4.782 -0.3266 -0.1532  0.6445
11235SOL     OW35698   0.490   3.429   3.926 -0.4868 -0.5625 -0.0626
11235SOL    HW135699   0.461   3.520   3.931 -0.2882 -0.5419  0.8495
11235SOL    HW235700   0.485   3.408   3.833 -0.3781  0.4333 -0.3098
11236SOL     OW35701   3.792   6.352   8.034  0.6088 -0.2358 -0.4238
11236SOL    HW135702   3.753   6.355   8.122  0.5188 -2.7569 -0.3075
11236SOL    HW235703   3.720   6.323   7.977  1.7982 -3.4626 -0.4544
11237SOL     OW35704   0.018   7.812   6.136  0.1042 -0.1294 -0.4252
11237SOL    HW135705   0.085   7.866   6.178  0.9097 -0.3762 -1.3393
11237SOL    HW235706  -0.060   7.867   6.135  0.2199  0.0850  0.8606
11238SOL     OW35707   7.122   7.542   7.592 -0.1697 -0.1090 -0.4352
11238SOL    HW135708   7.030   7.563   7.572 -0.8756 -0.6553  1.9425
11238SOL    HW235709   7.138   7.582   7.677  2.2660  1.1067 -1.3967
11239SOL     OW35710   7.651   2.790   5.565 -0.0388 -0.0718  0.2394
11239SOL    HW135711   7.608   2.861   5.614 -1.3302  0.3625 -1.4478
11239SOL    HW235712   7.579   2.744   5.523  1.0680  0.0449 -1.8749
11240SOL     OW35713   3.798   0.887   1.678 -0.3874  0.0461  0.1433
11240SOL    HW135714   3.746   0.916   1.753  1.3652  0.1146  1.3829
11240SOL    HW235715   3.737   0.891   1.604 -2.0917  0.2446  1.4914
11241SOL     OW35716   3.206   8.745   1.325  0.4947  0.5379 -0.3713
11241SOL    HW135717   3.162   8.804   1.387  1.4693  0.0966  0.7992
11241SOL    HW235718   3.187   8.658   1.358  1.8776  0.3303 -0.0699
11242SOL     OW35719   7.157   6.983   8.875 -0.0683  0.2573 -0.0569
11242SOL    HW135720   7.140   7.065   8.828  1.1702  0.7958  0.3902
11242SOL    HW235721   7.197   6.926   8.810  0.6110  0.6075  0.0472
11243SOL     OW35722   4.287   1.685   4.564 -0.5134 -0.5098  0.3831
11243SOL    HW135723   4.234   1.683   4.484  0.2953 -2.4371 -0.1825
11243SOL    HW235724   4.326   1.772   4.565 -0.8401 -0.3091 -1.1233
11244SOL     OW35725   3.299   6.421   4.964 -0.1214  0.2283  0.0673
11244SOL    HW135726   3.333   6.403   4.877  0.2965 -0.0447  0.2844
11244SOL    HW235727   3.295   6.335   5.007 -0.7737  0.2966  0.1557
11245SOL     OW35728   6.127   8.604   1.559  0.7457 -0.0796  0.0119
11245SOL    HW135729   6.134   8.509   1.550  1.1132 -0.1827  1.2484
11245SOL    HW235730   6.147   8.637   1.472 -1.7898 -1.2166 -1.1276
11246SOL     OW35731   2.749   3.435   5.124  0.1410 -0.7084 -0.2778
11246SOL    HW135732   2.682   3.474   5.067 -0.2962 -2.3913 -0.9682
11246SOL    HW235733   2.831   3.472   5.092 -0.3873  1.3332  0.5309
11247SOL     OW35734   1.667   4.284   1.625 -0.8261 -0.3519 -0.1449
11247SOL    HW135735   1.644   4.321   1.711 -0.7021 -0.0782 -0.2270
11247SOL    HW235736   1.700   4.359   1.576  0.4150 -0.7656  0.0174
11248SOL     OW35737   8.689   7.219   8.223 -0.5866 -0.4441  0.3611
11248SOL    HW135738   8.683   7.308   8.259 -1.4357 -0.6850  0.8347
11248SOL    HW235739   8.633   7.221   8.145 -0.1944 -0.4282  0.0764
11249SOL     OW35740   5.435   1.889   1.783  0.3069  0.3860  0.4587
11249SOL    HW135741   5.434   1.816   1.845  1.0381 -0.5925 -0.6315
11249SOL    HW235742   5.344   1.919   1.779  0.4559  1.4223  3.0292
11250SOL     OW35743   3.160   1.580   8.168 -0.6048  0.0990  0.1670
11250SOL    HW135744   3.223   1.647   8.195  0.2632 -0.2176 -1.0255
11250SOL    HW235745   3.214   1.510   8.130 -1.7122  0.3555 -2.0256
11251SOL     OW35746   4.687   3.979   0.875  0.4123  0.2205 -0.3975
11251SOL    HW135747   4.763   4.037   0.883 -0.0383  0.7408  0.1794
11251SOL    HW235748   4.722   3.901   0.832  1.7116 -0.3562  1.5619
11252SOL     OW35749   4.662   0.778   5.522 -0.0775 -0.4733  0.2096
11252SOL    HW135750   4.587   0.837   5.520 -0.7288 -1.2177  1.4056
11252SOL    HW235751   4.700   0.785   5.434 -1.9279 -0.5675 -0.6563
11253SOL     OW35752   3.350   4.998   2.910  0.2134  0.0463  0.1748
11253SOL    HW135753   3.425   4.944   2.938 -0.4103 -0.9262 -0.0062
11253SOL    HW235754   3.277   4.968   2.964  0.3603  2.3983  1.8446
11254SOL     OW35755   8.739   6.041   5.428  0.1939 -0.1307 -0.7610
11254SOL    HW135756   8.820   5.993   5.447 -0.8178 -1.6691 -0.2042
11254SOL    HW235757   8.708   6.006   5.345 -1.1015 -1.2652  0.1541
11255SOL     OW35758   0.179   1.761   1.302  0.3356  0.1003  0.4068
11255SOL    HW135759   0.111   1.820   1.270  0.9390  0.8778  0.5408
11255SOL    HW235760   0.147   1.674   1.278 -0.6545  0.4527  0.3748
11256SOL     OW35761   4.159   2.875   8.781 -0.4927  0.4059 -0.2658
11256SOL    HW135762   4.189   2.796   8.736 -0.8841 -0.0259  0.2192
11256SOL    HW235763   4.125   2.843   8.865 -1.0122  1.0414 -0.2291
11257SOL     OW35764   8.810   2.426   7.938  0.3868  0.0615  0.5411
11257SOL    HW135765   8.871   2.500   7.933 -0.8411  1.1594  1.3100
11257SOL    HW235766   8.821   2.381   7.854  0.7590  1.4420 -0.1784
11258SOL     OW35767   2.487   0.249   7.097 -0.2892  0.0729 -0.2458
11258SOL    HW135768   2.407   0.295   7.072  0.0090  0.4558 -0.5023
11258SOL    HW235769   2.505   0.280   7.186 -0.9709 -0.7726  0.2059
11259SOL     OW35770   2.615   7.884   4.890 -0.1236 -0.6460  0.0061
11259SOL    HW135771   2.539   7.859   4.837 -0.6926 -2.0210  1.3825
11259SOL    HW235772   2.595   7.849   4.977  1.6966 -0.2554  0.6093
11260SOL     OW35773   5.472   7.482   2.802 -0.3216 -0.1915  0.0286
11260SOL    HW135774   5.482   7.539   2.726 -3.2856  0.2373 -0.1720
11260SOL    HW235775   5.490   7.394   2.769  1.1974  0.2564 -0.4161
11261SOL     OW35776   8.602   2.203   2.683 -0.0104 -0.1888  0.1850
11261SOL    HW135777   8.525   2.242   2.642 -1.3185 -2.7715 -0.0477
11261SOL    HW235778   8.613   2.251   2.765 -0.4266  1.7348 -0.8385
11262SOL     OW35779   1.829   4.352   1.264  0.2190 -0.5631  0.4971
11262SOL    HW135780   1.799   4.357   1.173  0.8456 -0.4477  0.2971
11262SOL    HW235781   1.816   4.440   1.299  0.3895 -0.4970  0.3924
11263SOL     OW35782   6.230   3.457   6.938 -0.0973 -0.8696  0.3130
11263SOL    HW135783   6.267   3.379   6.981 -1.3857 -1.5243  0.3115
11263SOL    HW235784   6.263   3.453   6.849  0.0771 -1.2648  0.3896
11264SOL     OW35785   5.155   4.016   3.093 -0.1979  0.3013  0.4879
11264SOL    HW135786   5.089   3.947   3.094 -0.4118  0.4637 -0.8936
11264SOL    HW235787   5.235   3.973   3.121  0.4946 -1.4445 -3.5248
11265SOL     OW35788   3.549   6.062   8.436  1.2149  0.0369 -0.1978
11265SOL    HW135789   3.590   6.145   8.414 -0.8175  1.6822  1.7865
11265SOL    HW235790   3.472   6.056   8.380  0.3807  0.4142  0.8675
11266SOL     OW35791   3.746   0.198   4.539  0.5090 -0.1742 -0.0813
11266SOL    HW135792   3.702   0.129   4.490 -0.2362  0.3085 -0.0990
11266SOL    HW235793   3.822   0.221   4.484 -0.2863  0.3234 -1.0063
11267SOL     OW35794   1.562   6.231   1.071 -0.3235 -0.0874 -0.1996
11267SOL    HW135795   1.473   6.266   1.066 -0.3601 -0.2443 -0.8103
11267SOL    HW235796   1.612   6.297   1.118 -0.5720  0.4108 -0.6345
11268SOL     OW35797   7.061   7.869   2.990 -0.3380 -0.1782 -0.4021
11268SOL    HW135798   7.014   7.803   2.938 -0.3780  0.2586 -0.9304
11268SOL    HW235799   7.136   7.822   3.026 -0.1739 -0.4377 -1.0594
11269SOL     OW35800   1.141   4.789   1.588  0.1381 -0.1283  0.1211
11269SOL    HW135801   1.080   4.793   1.661 -2.5207 -0.0381 -1.9457
11269SOL    HW235802   1.225   4.813   1.625 -0.8418 -1.2403  3.3563
11270SOL     OW35803   5.092   7.778   3.121  0.0668  0.0459 -0.5195
11270SOL    HW135804   5.106   7.796   3.028  0.7931  0.8004 -0.2748
11270SOL    HW235805   5.164   7.719   3.145 -0.6539 -0.9137 -0.6382
11271SOL     OW35806   1.915   2.211   8.588  0.0490  0.2410  0.3771
11271SOL    HW135807   1.926   2.116   8.583 -1.2184  0.1366 -0.8235
11271SOL    HW235808   1.940   2.233   8.678  0.2376 -1.2401  0.7096
11272SOL     OW35809   7.586   3.414   1.476 -0.5528  0.0130  0.3351
11272SOL    HW135810   7.680   3.426   1.463 -0.5455  0.0929  0.4507
11272SOL    HW235811   7.571   3.447   1.565 -0.6486 -0.2225  0.4073
11273SOL     OW35812   8.804   0.110   0.953  0.5164 -0.1308 -0.3492
11273SOL    HW135813   8.831   0.018   0.953  1.3813  0.1023  0.7203
11273SOL    HW235814   8.881   0.158   0.921 -0.1634  0.1746 -1.5667
11274SOL     OW35815   4.885   7.745   8.736  0.7799  0.5036 -0.7897
11274SOL    HW135816   4.872   7.650   8.728  1.2275  0.1647  1.6092
11274SOL    HW235817   4.915   7.773   8.650 -0.9505 -1.2345 -2.0506
11275SOL     OW35818   6.225   2.759   3.545 -0.2728  0.4300  0.6016
11275SOL    HW135819   6.255   2.804   3.623  0.9144 -0.8820  0.9375
11275SOL    HW235820   6.294   2.773   3.481  0.5451 -1.5691  0.9821
11276SOL     OW35821   5.655   2.458   7.859  0.2318 -0.2824  0.2303
11276SOL    HW135822   5.664   2.538   7.807  0.1927 -1.0664 -1.0431
11276SOL    HW235823   5.561   2.440   7.858  0.2557 -0.4133  0.4007
11277SOL     OW35824   3.552   5.411   8.651 -0.2430  0.0205 -0.4754
11277SOL    HW135825   3.566   5.337   8.710 -0.7357  0.0477 -0.3206
11277SOL    HW235826   3.475   5.455   8.686 -0.4119  0.1622 -1.0161
11278SOL     OW35827   5.451   8.369   0.870 -0.8138  0.0185  0.2965
11278SOL    HW135828   5.465   8.275   0.874  0.2931  0.0163 -1.8706
11278SOL    HW235829   5.357   8.379   0.855 -1.1342 -0.6473  1.7200
11279SOL     OW35830   5.595   1.069   5.645  0.7306  0.2471  0.3473
11279SOL    HW135831   5.636   1.108   5.722  2.5895  0.0057 -0.4747
11279SOL    HW235832   5.637   1.113   5.570 -1.8657  1.3455 -0.5952
11280SOL     OW35833   5.883   8.729   2.415 -0.5015  0.0984 -0.5323
11280SOL    HW135834   5.936   8.651   2.426 -0.0542  0.2830 -1.2710
11280SOL    HW235835   5.825   8.708   2.341  1.1293  1.2218 -2.2092
11281SOL     OW35836   4.121   5.303   7.009 -0.1684 -0.6565  0.2617
11281SOL    HW135837   4.190   5.358   7.047 -2.0936  1.4516  0.8909
11281SOL    HW235838   4.091   5.250   7.083 -1.2444  0.6293  0.7867
11282SOL     OW35839   8.015   3.578   3.793  0.1823 -0.5100  0.1560
11282SOL    HW135840   8.047   3.588   3.703 -1.3137  0.3732 -0.3220
11282SOL    HW235841   8.092   3.591   3.848  1.1733 -1.3345 -1.0012
11283SOL     OW35842   2.124   8.656   7.948 -0.0711 -0.3230  0.1336
11283SOL    HW135843   2.188   8.585   7.958  0.6840  0.1261 -1.2332
11283SOL    HW235844   2.113   8.691   8.036  2.3410  0.2247  0.2785
11284SOL     OW35845   1.168   4.054   6.794  0.0312 -0.1957 -0.0235
11284SOL    HW135846   1.152   4.024   6.705  0.9333  1.1467 -0.6608
11284SOL    HW235847   1.091   4.024   6.843 -0.0701 -1.6951 -1.0473
11285SOL     OW35848   4.494   8.804   0.590  0.5842 -0.1911 -0.0259
11285SOL    HW135849   4.455   8.737   0.533  2.8174 -0.7404 -1.0303
11285SOL    HW235850   4.564   8.758   0.636  0.8506  1.0043  0.7959
11286SOL     OW35851   6.686   8.560   2.138 -0.0164  0.2222 -0.4869
11286SOL    HW135852   6.776   8.568   2.169 -0.2357  1.2248 -0.0700
11286SOL    HW235853   6.694   8.540   2.044  0.6382  0.2347 -0.4359
11287SOL     OW35854   7.242   6.720   3.304  0.0973  0.7724 -0.5937
11287SOL    HW135855   7.316   6.689   3.356 -0.2938  0.7898 -0.0273
11287SOL    HW235856   7.238   6.814   3.322 -0.9641  0.5343  0.5306
11288SOL     OW35857   7.830   2.287   8.654  0.0008 -0.1613 -0.3285
11288SOL    HW135858   7.742   2.309   8.685 -0.4954 -0.7784 -1.2423
11288SOL    HW235859   7.825   2.297   8.559  0.4461 -1.7349 -0.5443
11289SOL     OW35860   8.331   5.619   4.279 -0.2309 -0.2263 -1.0117
11289SOL    HW135861   8.239   5.596   4.294 -0.5195  1.9257  1.1788
11289SOL    HW235862   8.377   5.586   4.356  0.7025 -0.4931 -1.6675
11290SOL     OW35863   2.396   1.964   5.377 -0.2723 -0.1287  0.1606
11290SOL    HW135864   2.331   1.955   5.308 -1.3345  3.0388  0.6080
11290SOL    HW235865   2.347   1.996   5.453  1.4179 -0.1801  1.3489
11291SOL     OW35866   0.153   3.762   0.195  0.2270 -0.7359 -0.7372
11291SOL    HW135867   0.137   3.707   0.119 -0.4630 -1.0981 -0.3382
11291SOL    HW235868   0.171   3.700   0.266 -0.1014 -0.4361 -0.3878
11292SOL     OW35869   3.504   0.091   6.830 -0.5863 -0.4157  0.1026
11292SOL    HW135870   3.448   0.067   6.756  1.0958 -1.2937 -0.9639
11292SOL    HW235871   3.534   0.008   6.866 -0.2844  0.0260  0.9050
11293SOL     OW35872   6.756   5.309   7.092 -0.5051  0.0830 -0.3465
11293SOL    HW135873   6.718   5.359   7.021  0.3949 -0.0007 -0.9103
11293SOL    HW235874   6.809   5.372   7.141 -2.3599  0.5030  1.2325
11294SOL     OW35875   8.471   2.127   2.161 -0.1645 -0.0311  0.4115
11294SOL    HW135876   8.418   2.085   2.093  1.2668 -3.1702  1.0271
11294SOL    HW235877   8.422   2.204   2.187 -2.2771 -0.4538 -1.9852
11295SOL     OW35878   5.579   2.093   2.543 -0.6343 -0.3579 -0.2467
11295SOL    HW135879   5.629   2.149   2.603 -1.2004  0.2728 -0.3555
11295SOL    HW235880   5.546   2.153   2.475 -1.5090 -0.7599 -0.1939
11296SOL     OW35881   5.409   2.773   7.583 -0.6349 -0.8288 -0.2399
11296SOL    HW135882   5.412   2.680   7.604 -1.5356 -1.1544 -1.4021
11296SOL    HW235883   5.485   2.787   7.527 -0.7186 -0.9592 -0.3878
11297SOL     OW35884   5.035   5.206   4.845  0.4698  0.1327  0.0257
11297SOL    HW135885   5.128   5.196   4.827  1.2254  0.0353  3.2544
11297SOL    HW235886   5.017   5.144   4.916 -2.0770  0.1495 -0.4871
11298SOL     OW35887   2.176   7.026   8.607 -0.3159 -0.2086 -0.1027
11298SOL    HW135888   2.242   7.090   8.634 -1.4466  0.6927  0.6746
11298SOL    HW235889   2.100   7.080   8.583 -0.8351 -1.2173 -0.7699
11299SOL     OW35890   4.690   1.866   6.198  0.2845 -0.5375  0.3801
11299SOL    HW135891   4.610   1.886   6.247  0.0996  0.6789 -0.3769
11299SOL    HW235892   4.709   1.946   6.149  1.0170 -1.3787 -0.7692
11300SOL     OW35893   0.243   7.180   0.383  0.0254  0.4530 -0.2115
11300SOL    HW135894   0.172   7.197   0.445  1.2718  0.9315  1.1586
11300SOL    HW235895   0.292   7.262   0.380  0.1638  0.3436 -1.6446
11301SOL     OW35896   2.873   8.798   4.518 -0.3974  0.0976 -0.5008
11301SOL    HW135897   2.831   8.724   4.474 -0.1642  0.4598 -1.3508
11301SOL    HW235898   2.873   8.868   4.453  0.3285  0.5234 -0.0588
11302SOL     OW35899   5.585   2.606   8.676  0.0111 -0.1863 -0.0313
11302SOL    HW135900   5.582   2.519   8.715 -1.8697  0.0690  0.4624
11302SOL    HW235901   5.670   2.608   8.630  0.2099 -2.1638  0.1458
11303SOL     OW35902   4.255   7.263   4.002 -0.4618  0.2951  0.5170
11303SOL    HW135903   4.328   7.210   3.969 -1.4611 -0.5394 -0.4346
11303SOL    HW235904   4.290   7.307   4.079  0.9230 -0.4094  0.3151
11304SOL     OW35905   8.221   3.552   4.177  0.3069  0.3387 -0.1837
11304SOL    HW135906   8.309   3.533   4.208  0.7933 -1.1581 -2.2364
11304SOL    HW235907   8.164   3.496   4.231  0.8194 -0.0384 -0.0266
11305SOL     OW35908   1.286   5.995   1.417  0.1253 -0.1105  0.0264
11305SOL    HW135909   1.378   5.969   1.414  0.1622  0.0107  0.0798
11305SOL    HW235910   1.284   6.070   1.476 -0.0002 -0.0801 -0.0138
11306SOL     OW35911   7.196   7.726   6.174  0.6187  0.5446 -0.1397
11306SOL    HW135912   7.289   7.744   6.158  0.8778 -0.4445  0.2071
11306SOL    HW235913   7.151   7.804   6.141  1.5295  0.8043 -0.8178
11307SOL     OW35914   4.931   1.059   0.162  0.3334 -0.1608 -0.4033
11307SOL    HW135915   4.961   0.968   0.157 -2.5373 -1.2416  0.1229
11307SOL    HW235916   4.952   1.085   0.252 -1.2413 -1.3024  0.3442
11308SOL     OW35917   8.020   7.927   7.396  0.5195 -1.3065  0.1911
11308SOL    HW135918   8.009   8.022   7.407  1.3914 -1.1704 -0.0123
11308SOL    HW235919   7.947   7.889   7.445  0.7387 -0.5548  1.1406
11309SOL     OW35920   5.905   7.877   4.714 -0.2286  0.3053  0.4520
11309SOL    HW135921   5.866   7.814   4.653 -0.1576 -0.9107  1.6171
11309SOL    HW235922   5.999   7.868   4.701 -0.1895 -0.4497  1.1993
11310SOL     OW35923   2.560   0.479   5.992  0.0355  0.4983 -0.6393
11310SOL    HW135924   2.580   0.428   5.913  2.2720  0.2406  0.0304
11310SOL    HW235925   2.576   0.419   6.064 -1.0955  1.0133  0.0771
11311SOL     OW35926   6.981   0.594   3.307 -0.1340 -0.3415 -0.0690
11311SOL    HW135927   7.021   0.604   3.393 -0.2952  0.7144 -0.1049
11311SOL    HW235928   6.906   0.655   3.308  0.2368  0.1664 -1.1706
11312SOL     OW35929   7.812   8.090   7.116  0.1764 -0.0845 -0.0920
11312SOL    HW135930   7.878   8.020   7.117  0.0243 -0.2303 -0.1061
11312SOL    HW235931   7.744   8.059   7.176  0.4031  0.3488  0.3909
11313SOL     OW35932   5.146   6.681   0.056  0.0244 -0.0864 -0.2229
11313SOL    HW135933   5.239   6.689   0.033  0.0460  3.0999  0.5996
11313SOL    HW235934   5.105   6.760   0.021 -1.4677  0.8965  3.3140
11314SOL     OW35935   7.383   8.347   0.341  0.2863 -0.0937 -0.1274
11314SOL    HW135936   7.464   8.331   0.390 -0.2593 -1.4973  0.3755
11314SOL    HW235937   7.387   8.440   0.317  0.3410  0.8029  3.0209
11315SOL     OW35938   8.562   5.880   5.994 -0.2558  0.7243 -0.1688
11315SOL    HW135939   8.560   5.807   5.931 -0.5297  0.3968  0.2164
11315SOL    HW235940   8.599   5.841   6.074  1.2028  1.4105 -0.4637
11316SOL     OW35941   2.499   4.049   3.024  0.2723  0.3513  0.1868
11316SOL    HW135942   2.427   4.098   3.063 -0.4225  0.0397 -0.6763
11316SOL    HW235943   2.521   4.097   2.944  1.0739  0.4805  0.4734
11317SOL     OW35944   3.056   3.505   0.886  0.2623 -0.2721 -0.0319
11317SOL    HW135945   3.150   3.491   0.873  0.2589  0.7552 -1.3669
11317SOL    HW235946   3.037   3.585   0.838 -1.7589 -1.7784 -1.9618
11318SOL     OW35947   5.184   1.154   1.154 -0.1514 -0.0276 -0.1273
11318SOL    HW135948   5.201   1.118   1.067 -1.0916  0.3042 -0.4503
11318SOL    HW235949   5.259   1.125   1.206  0.9186  0.5773 -1.2706
11319SOL     OW35950   5.983   5.508   2.162 -0.4150 -0.1662 -0.2588
11319SOL    HW135951   5.892   5.525   2.186 -0.0994  0.0794  0.8003
11319SOL    HW235952   6.018   5.458   2.235  0.5673  0.5961 -0.1921
11320SOL     OW35953   1.153   2.836   2.050 -0.1322  0.3322 -0.2031
11320SOL    HW135954   1.126   2.771   2.115 -0.4547  0.4907 -0.1740
11320SOL    HW235955   1.086   2.831   1.981  1.4083 -1.4353 -1.6589
11321SOL     OW35956   2.182   3.371   8.342  0.3188  0.1918  0.1332
11321SOL    HW135957   2.144   3.327   8.418  0.5266 -0.3375 -0.0606
11321SOL    HW235958   2.212   3.299   8.286  0.4604  0.5832 -0.2963
11322SOL     OW35959   5.310   7.909   2.627 -0.1723 -0.5632  0.7480
11322SOL    HW135960   5.355   7.924   2.544 -0.4660  0.3139  0.7382
11322SOL    HW235961   5.380   7.889   2.689  0.2096  0.3915  0.6431
11323SOL     OW35962   2.437   0.224   0.004 -0.3659 -0.4269 -0.4413
11323SOL    HW135963   2.349   0.213   0.040 -0.2949 -2.0002 -0.6873
11323SOL    HW235964   2.485   0.270   0.072 -0.6368 -2.0065  0.8743
11324SOL     OW35965   8.246   5.752   8.367  0.3295 -0.3562 -0.0681
11324SOL    HW135966   8.185   5.811   8.411 -0.2512 -1.1058  0.1561
11324SOL    HW235967   8.224   5.665   8.402  1.7201 -0.6043  0.2387
11325SOL     OW35968   3.543   1.130   3.401 -0.0518 -0.4865 -0.2166
11325SOL    HW135969   3.632   1.095   3.404  0.7257  1.2743 -1.2387
11325SOL    HW235970   3.515   1.130   3.493  0.8015 -1.5258  0.0627
11326SOL     OW35971   2.295   7.703   6.641  0.2231 -0.3698  0.0108
11326SOL    HW135972   2.217   7.660   6.675 -0.8502  1.1652 -0.3782
11326SOL    HW235973   2.309   7.663   6.555 -0.2572 -0.5338  0.0050
11327SOL     OW35974   7.004   2.858   2.385  0.0218 -0.1767  0.7571
11327SOL    HW135975   7.010   2.861   2.481 -0.7404 -0.4413  0.8182
11327SOL    HW235976   7.082   2.809   2.358 -1.3175 -2.9044  1.4576
11328SOL     OW35977   6.393   2.719   2.666 -0.1208  0.1039 -0.2506
11328SOL    HW135978   6.355   2.676   2.743 -0.6835 -1.2733 -1.2474
11328SOL    HW235979   6.390   2.652   2.598  2.7973  0.4195 -0.7929
11329SOL     OW35980   1.366   0.225   7.493 -0.0653 -0.1744 -0.2885
11329SOL    HW135981   1.341   0.297   7.435  0.5191 -1.4555 -2.1795
11329SOL    HW235982   1.441   0.258   7.542  0.6536  0.2847 -1.6576
11330SOL     OW35983   3.432   1.425   3.334 -0.0741 -0.0768 -0.5224
11330SOL    HW135984   3.520   1.388   3.339 -0.1009 -0.0559  0.2069
11330SOL    HW235985   3.384   1.382   3.404  0.1056  1.8892  0.8839
11331SOL     OW35986   7.118   2.506   0.114 -0.7033 -0.2780  0.6462
11331SOL    HW135987   7.065   2.485   0.037  1.7940 -0.6457 -1.1027
11331SOL    HW235988   7.137   2.421   0.153 -0.0471 -0.3131  0.2687
11332SOL     OW35989   6.735   0.173   8.090  0.4290  0.4981  0.4085
11332SOL    HW135990   6.755   0.122   8.169  0.5832 -0.6725 -0.3653
11332SOL    HW235991   6.818   0.177   8.043  0.2023  0.6766  0.0226
11333SOL     OW35992   8.183   5.632   4.528 -0.2170  0.1740 -0.5508
11333SOL    HW135993   8.234   5.557   4.558 -2.7674 -0.8731  1.5423
11333SOL    HW235994   8.216   5.706   4.580 -0.2111 -0.3111  0.1552
11334SOL     OW35995   4.801   3.590   6.096 -0.2313 -0.0046  0.3443
11334SOL    HW135996   4.744   3.514   6.110  0.6099 -0.7721 -0.3120
11334SOL    HW235997   4.767   3.631   6.016  0.2335 -0.5506 -0.1330
11335SOL     OW35998   7.375   3.039   1.980 -0.4500  0.1041  0.1216
11335SOL    HW135999   7.299   2.996   1.940  0.0709  1.1455 -2.1513
11335SOL    HW236000   7.443   2.971   1.981  0.0502  0.4677 -2.4820
11336SOL     OW36001   1.374   7.965   4.931 -0.4353 -1.1121  0.3465
11336SOL    HW136002   1.281   7.945   4.941 -0.5212 -0.5486  0.7538
11336SOL    HW236003   1.376   8.027   4.858 -0.5512  0.0104  1.2681
11337SOL     OW36004   5.405   3.704   2.210  0.2419 -0.4403  0.0892
11337SOL    HW136005   5.441   3.735   2.127 -1.3701  2.8569  0.4804
11337SOL    HW236006   5.454   3.751   2.277 -0.6767 -0.5399  0.8563
11338SOL     OW36007   3.540   8.888   4.364  0.0639  0.3621 -0.5879
11338SOL    HW136008   3.472   8.860   4.302 -0.3419 -1.3010  0.5656
11338SOL    HW236009   3.604   8.818   4.363 -0.3673 -0.1298  1.4674
11339SOL     OW36010   7.021   4.131   0.200  0.5209 -0.4802 -0.0215
11339SOL    HW136011   7.105   4.098   0.169  0.3818 -1.8787  1.0125
11339SOL    HW236012   6.957   4.098   0.137  0.7520  1.0113 -1.1026
11340SOL     OW36013   0.793   7.290   5.390 -0.0846 -0.7263  0.1249
11340SOL    HW136014   0.735   7.246   5.328  1.5735 -1.7420 -0.7612
11340SOL    HW236015   0.826   7.365   5.342 -0.2437 -0.4478  0.4484
11341SOL     OW36016   6.451   1.725   7.145 -0.2574  0.1215  0.6168
11341SOL    HW136017   6.426   1.808   7.103 -0.2273 -1.0518 -1.8981
11341SOL    HW236018   6.430   1.658   7.080 -1.4904 -2.0278  3.0371
11342SOL     OW36019   8.553   5.451   6.476  0.4408  0.1306 -0.0533
11342SOL    HW136020   8.468   5.474   6.439 -0.1524 -1.3426  0.3144
11342SOL    HW236021   8.591   5.535   6.502 -2.4675  0.6955  3.2163
11343SOL     OW36022   1.306   2.617   4.763  0.0495  0.3912 -0.4255
11343SOL    HW136023   1.358   2.679   4.711 -2.0809  1.7907 -1.0207
11343SOL    HW236024   1.227   2.666   4.786 -0.5157 -1.2701  1.4204
11344SOL     OW36025   0.355   3.531   0.605 -0.2095  0.1213 -0.0415
11344SOL    HW136026   0.277   3.478   0.618 -0.2477 -0.0303 -0.8420
11344SOL    HW236027   0.421   3.470   0.572 -0.1078  0.4727 -0.5003
11345SOL     OW36028   3.334   8.429   3.651 -0.2264 -0.3285 -0.6551
11345SOL    HW136029   3.391   8.458   3.580  0.3946 -0.2719 -0.1378
11345SOL    HW236030   3.389   8.372   3.704 -1.1997 -1.8822 -1.2292
11346SOL     OW36031   6.340   8.847   3.965 -0.0578  0.2220 -0.4617
11346SOL    HW136032   6.436   8.845   3.963 -0.0619  0.0526 -0.4278
11346SOL    HW236033   6.314   8.835   3.874 -0.0924 -1.7279 -0.2238
11347SOL     OW36034   4.903   2.871   5.780  0.6498 -0.1219 -0.1832
11347SOL    HW136035   4.892   2.917   5.696 -0.5555 -0.1022 -0.0275
11347SOL    HW236036   4.994   2.841   5.778  2.0636  3.5584  0.3536
11348SOL     OW36037   3.456   7.306   8.197  0.0639 -0.5329 -0.2221
11348SOL    HW136038   3.510   7.304   8.118  0.5940 -0.2452  0.1220
11348SOL    HW236039   3.434   7.214   8.213  1.6877 -0.8549  0.4383
11349SOL     OW36040   0.909   6.774   8.061  0.0731  0.3606 -0.5993
11349SOL    HW136041   0.977   6.711   8.087 -0.3055  0.3030  0.2621
11349SOL    HW236042   0.884   6.747   7.973 -0.4591 -1.0283 -0.0395
11350SOL     OW36043   7.929   3.008   1.443  0.1695  0.0677 -0.4802
11350SOL    HW136044   7.958   2.949   1.374 -0.6383  0.8747 -1.5292
11350SOL    HW236045   8.007   3.060   1.464  0.2624  0.2269 -1.2066
11351SOL     OW36046   3.594   2.211   7.194 -0.1111 -0.1256  0.0594
11351SOL    HW136047   3.529   2.189   7.127 -0.0107 -2.3365  0.6351
11351SOL    HW236048   3.542   2.247   7.266 -0.5791 -0.8223  0.0751
11352SOL     OW36049   7.480   8.737   6.651  0.9335  0.6365 -0.6801
11352SOL    HW136050   7.470   8.683   6.729  1.7815  1.0204 -0.2932
11352SOL    HW236051   7.571   8.724   6.625  0.3476 -0.4303 -2.3293
11353SOL     OW36052   3.735   4.070   6.829 -0.2964 -0.1446 -0.3001
11353SOL    HW136053   3.748   4.116   6.746 -0.9894 -0.4056 -0.5533
11353SOL    HW236054   3.750   4.137   6.896  0.6477 -0.0235 -0.6110
11354SOL     OW36055   1.750   6.718   4.185  0.4701  0.2172  0.0082
11354SOL    HW136056   1.707   6.634   4.172  1.8455 -0.8336  1.8598
11354SOL    HW236057   1.678   6.780   4.197 -0.5958 -1.2441  1.7080
11355SOL     OW36058   3.082   4.040   7.823  0.0697 -0.5110 -0.1687
11355SOL    HW136059   3.132   4.120   7.808 -2.3385  1.1434  0.0595
11355SOL    HW236060   3.100   3.986   7.745  0.7384  0.7848 -0.9515
11356SOL     OW36061   6.583   3.001   5.990 -0.0480  0.0930 -0.4164
11356SOL    HW136062   6.616   3.086   5.961 -2.8090  1.3654 -0.1551
11356SOL    HW236063   6.576   2.950   5.909 -1.0991  1.1671 -1.0398
11357SOL     OW36064   6.228   4.620   8.009  0.5795  0.1804 -0.4464
11357SOL    HW136065   6.244   4.529   8.034 -0.7412  0.4021  1.3934
11357SOL    HW236066   6.137   4.621   7.978 -0.2735  1.2545  1.8843
11358SOL     OW36067   3.904   5.481   7.578 -0.0094  0.1075 -0.7175
11358SOL    HW136068   3.930   5.545   7.645 -0.0995  0.8348 -1.3718
11358SOL    HW236069   3.923   5.524   7.495 -0.4690 -0.5548 -1.1725
11359SOL     OW36070   0.311   2.258   6.550 -0.4550  0.2493 -0.2559
11359SOL    HW136071   0.360   2.208   6.485  1.1618  1.1334  0.2342
11359SOL    HW236072   0.316   2.349   6.518 -1.8596  0.3624 -0.2294
11360SOL     OW36073   6.885   5.330   3.737 -0.5045 -0.1975  0.2234
11360SOL    HW136074   6.953   5.272   3.774 -1.2189 -0.8123  0.5907
11360SOL    HW236075   6.827   5.271   3.689  0.3764  0.5645 -1.9363
11361SOL     OW36076   7.428   3.989   0.637 -0.1691 -1.1986 -0.1213
11361SOL    HW136077   7.389   3.914   0.592  0.9458 -2.1105  0.3626
11361SOL    HW236078   7.465   3.952   0.718 -0.4277  0.0492  0.5951
11362SOL     OW36079   3.679   3.814   7.377 -0.2030 -0.6477 -0.6580
11362SOL    HW136080   3.763   3.848   7.411 -1.2021  1.4254 -0.0867
11362SOL    HW236081   3.688   3.820   7.282  0.8816 -2.0517 -0.6840
11363SOL     OW36082   4.800   4.370   3.870  0.3786 -0.5506 -0.1272
11363SOL    HW136083   4.817   4.359   3.964 -1.5421 -0.6018  0.2672
11363SOL    HW236084   4.707   4.349   3.861  0.3059  0.4043 -1.8972
11364SOL     OW36085   5.943   4.525   4.564 -0.0441 -0.3649  0.3738
11364SOL    HW136086   5.891   4.447   4.580  0.6917 -1.2525 -1.3427
11364SOL    HW236087   6.027   4.493   4.532  0.5933  1.1146  0.4483
11365SOL     OW36088   3.244   6.271   1.795  0.1728  0.0746  0.4816
11365SOL    HW136089   3.308   6.203   1.814 -0.7491 -1.2174 -0.8544
11365SOL    HW236090   3.289   6.330   1.734 -0.1360 -1.2794 -1.1077
11366SOL     OW36091   4.686   3.160   2.094 -0.3393  0.1699  0.2863
11366SOL    HW136092   4.662   3.251   2.077 -1.0173 -0.2756 -1.3405
11366SOL    HW236093   4.758   3.166   2.157 -1.7930  1.7318  1.9285
11367SOL     OW36094   6.943   5.929   5.966  0.6599  1.0442  0.3522
11367SOL    HW136095   6.945   6.008   5.913 -1.7016  1.3137  0.5713
11367SOL    HW236096   6.878   5.947   6.034 -0.8581 -1.4753 -0.3082
11368SOL     OW36097   3.481   6.957   2.637 -0.1424  0.3241  0.3144
11368SOL    HW136098   3.449   6.992   2.554  1.3430  0.8879 -0.0577
11368SOL    HW236099   3.533   6.880   2.613 -0.0818  0.2155  0.7714
11369SOL     OW36100   2.891   3.916   8.464  0.0182 -0.4852 -0.5616
11369SOL    HW136101   2.839   3.978   8.515  1.4105 -0.4019  0.8228
11369SOL    HW236102   2.839   3.902   8.384 -1.1111  1.1848 -0.1884
11370SOL     OW36103   1.363   3.700   2.397 -0.0100  0.1838 -0.3139
11370SOL    HW136104   1.322   3.614   2.386 -0.6115  0.4404 -0.1549
11370SOL    HW236105   1.291   3.762   2.385  0.2664  0.6368  0.3321
11371SOL     OW36106   4.601   7.439   8.332 -0.2344 -0.1701 -0.1421
11371SOL    HW136107   4.644   7.516   8.370 -1.9708  0.8537 -0.1174
11371SOL    HW236108   4.545   7.406   8.403  1.3323 -2.2288  0.2452
11372SOL     OW36109   5.403   0.785   4.332  0.1150  0.2053 -0.5132
11372SOL    HW136110   5.498   0.782   4.345  0.1422  2.6090  0.2017
11372SOL    HW236111   5.392   0.797   4.238  0.5404  0.6816 -0.5030
11373SOL     OW36112   2.190   6.707   3.117 -0.1506 -0.3907  0.4524
11373SOL    HW136113   2.201   6.668   3.030 -1.4369  0.3164 -0.0490
11373SOL    HW236114   2.237   6.790   3.112 -0.6640 -0.1045  0.2391
11374SOL     OW36115   8.014   6.905   1.665  0.0929 -0.3201 -0.3155
11374SOL    HW136116   7.935   6.957   1.656  1.9855  2.4394 -3.2163
11374SOL    HW236117   8.060   6.942   1.740 -0.0778 -0.0714 -0.3345
11375SOL     OW36118   1.082   8.667   7.223  0.0420 -0.3720  0.4368
11375SOL    HW136119   1.139   8.692   7.151 -0.5774  3.3324  1.0162
11375SOL    HW236120   1.141   8.658   7.298  0.1609  1.8929  0.6922
11376SOL     OW36121   3.748   3.868   1.013  0.5111  0.8693 -0.4691
11376SOL    HW136122   3.819   3.932   1.010  2.9113 -1.4689  1.8851
11376SOL    HW236123   3.787   3.787   0.978 -1.2440 -0.2934  0.1349
11377SOL     OW36124   0.602   0.162   8.471 -0.2554 -0.0698 -0.2807
11377SOL    HW136125   0.635   0.205   8.392 -2.7709  2.3313 -0.1654
11377SOL    HW236126   0.571   0.076   8.440  0.0944  0.2547 -1.6054
11378SOL     OW36127   0.401   7.859   8.816  0.1329 -0.5096 -0.1794
11378SOL    HW136128   0.417   7.906   8.734 -1.6265  1.8000  0.7252
11378SOL    HW236129   0.440   7.914   8.883 -3.4082  0.6534  1.0920
11379SOL     OW36130   4.153   2.605   8.681 -0.2113 -0.4580  0.2223
11379SOL    HW136131   4.122   2.639   8.597 -1.0094 -0.3521  0.5476
11379SOL    HW236132   4.146   2.510   8.673  0.9591 -0.5186 -0.2890
11380SOL     OW36133   8.292   5.843   3.862  0.0293  0.5399  0.3513
11380SOL    HW136134   8.219   5.897   3.894  0.1551  0.3653  0.9483
11380SOL    HW236135   8.358   5.849   3.931  0.4625  0.4558 -0.0512
11381SOL     OW36136   0.890   1.546   7.926  0.1827 -0.2637  0.3459
11381SOL    HW136137   0.912   1.628   7.969 -2.4006  0.8264 -0.2518
11381SOL    HW236138   0.871   1.486   7.998 -0.1144  0.3274  0.7666
11382SOL     OW36139   5.974   6.737   1.806 -0.4111  0.1256 -0.4378
11382SOL    HW136140   5.900   6.702   1.856  1.1154 -0.4642  1.5361
11382SOL    HW236141   5.977   6.829   1.830 -0.5493  0.1655 -0.5730
11383SOL     OW36142   1.362   7.942   8.417 -0.7761 -0.2178 -0.2107
11383SOL    HW136143   1.384   7.971   8.328 -2.9165  0.7991 -0.4619
11383SOL    HW236144   1.397   7.853   8.422  1.1665  0.4120 -1.3332
11384SOL     OW36145   6.847   3.493   4.528  0.2825 -0.1316  0.2289
11384SOL    HW136146   6.903   3.533   4.594  1.1794 -1.3875  0.2473
11384SOL    HW236147   6.853   3.552   4.453  1.2187  0.0120  0.4072
11385SOL     OW36148   3.789   0.206   6.880 -0.3507 -0.2884  0.3542
11385SOL    HW136149   3.853   0.184   6.948 -0.9228 -0.9324  0.6886
11385SOL    HW236150   3.762   0.122   6.843 -1.7602 -0.1163  0.9264
11386SOL     OW36151   5.025   5.983   2.747 -0.4389  0.1611 -0.1333
11386SOL    HW136152   5.050   6.031   2.668  0.7518 -0.9735 -0.4809
11386SOL    HW236153   4.950   5.930   2.720 -0.3764  0.1874 -0.3624
11387SOL     OW36154   3.990   8.332   4.147  0.2419 -0.4061 -0.4814
11387SOL    HW136155   4.083   8.351   4.161  0.3021  0.1706 -1.5083
11387SOL    HW236156   3.987   8.290   4.061 -0.4171 -0.7181 -0.3119
11388SOL     OW36157   6.194   3.973   0.176 -0.3055  0.2760 -0.4205
11388SOL    HW136158   6.266   3.913   0.156  1.2904  0.6256  3.3957
11388SOL    HW236159   6.237   4.055   0.201 -2.2451  1.6671 -1.4200
11389SOL     OW36160   0.535   1.418   4.559 -0.3761 -0.0826 -0.3244
11389SOL    HW136161   0.600   1.446   4.624 -0.1601 -0.0445 -0.5554
11389SOL    HW236162   0.521   1.495   4.505 -1.0551  0.0869  0.0815
11390SOL     OW36163   4.482   2.409   3.557 -0.4446 -0.1425  0.6107
11390SOL    HW136164   4.569   2.443   3.578  0.0617 -0.8769 -0.1785
11390SOL    HW236165   4.439   2.398   3.641  0.1623  0.4143  1.0002
11391SOL     OW36166   3.110   8.028   2.955 -0.1540 -0.6371 -0.1502
11391SOL    HW136167   3.052   7.961   2.993 -1.6877  0.4158 -0.5397
11391SOL    HW236168   3.095   8.105   3.009  1.1047 -0.3958 -0.1198
11392SOL     OW36169   7.824   5.910   6.794 -0.3369  0.1226 -0.2430
11392SOL    HW136170   7.841   6.000   6.819  0.7504  0.3835 -1.7882
11392SOL    HW236171   7.895   5.887   6.734  0.0102 -2.1156  0.9210
11393SOL     OW36172   0.123   1.953   2.589 -0.2547 -0.1114  0.6297
11393SOL    HW136173   0.062   1.936   2.517 -1.6717  0.9027  1.5497
11393SOL    HW236174   0.081   2.021   2.641  1.1790 -0.1481  1.9073
11394SOL     OW36175   7.714   6.919   7.090 -0.4195 -0.2791 -0.1199
11394SOL    HW136176   7.676   6.899   7.176  0.7818 -1.0697  0.2555
11394SOL    HW236177   7.688   7.009   7.073  0.0396  0.1859  1.4837
11395SOL     OW36178   3.685   4.678   2.603  0.0874 -0.1096  0.4662
11395SOL    HW136179   3.687   4.634   2.518  1.8713 -1.1685  0.9772
11395SOL    HW236180   3.713   4.610   2.665 -1.6156  0.5032  1.9921
11396SOL     OW36181   8.118   5.525   4.884  0.4094 -0.1439  0.4019
11396SOL    HW136182   8.193   5.475   4.853  1.5598  2.3749 -1.2049
11396SOL    HW236183   8.151   5.575   4.959  0.3311  0.8677 -0.2213
11397SOL     OW36184   3.025   3.650   7.773  0.1136  0.1135 -1.1234
11397SOL    HW136185   2.931   3.634   7.761 -0.2658 -0.0613  1.4581
11397SOL    HW236186   3.045   3.609   7.858  2.1589  1.5520 -0.8490
11398SOL     OW36187   1.134   2.202   0.190 -0.1983  0.2435  0.1881
11398SOL    HW136188   1.173   2.146   0.123  0.0415 -1.4031  1.6650
11398SOL    HW236189   1.095   2.275   0.140  0.3835 -0.6799 -1.6868
11399SOL     OW36190   5.004   2.381   8.230 -0.2807  0.0977 -0.0511
11399SOL    HW136191   4.933   2.368   8.167  0.1315 -1.2810 -0.2614
11399SOL    HW236192   5.017   2.296   8.271  2.1194 -0.0870 -0.9759
11400SOL     OW36193   8.830   8.754   0.446 -0.1937  0.0534 -0.4907
11400SOL    HW136194   8.874   8.724   0.525 -0.1064 -1.8042 -1.1904
11400SOL    HW236195   8.740   8.774   0.473 -0.3467 -1.1984 -0.0209
11401SOL     OW36196   5.873   6.388   3.675 -0.0321 -0.3976  0.4593
11401SOL    HW136197   5.873   6.459   3.611  0.0626 -0.7323  0.0847
11401SOL    HW236198   5.925   6.421   3.748  0.8248 -0.4363 -0.1138
11402SOL     OW36199   6.319   5.964   0.819  0.4342 -0.5464  0.1381
11402SOL    HW136200   6.408   5.998   0.823  0.2928  0.0715 -1.4758
11402SOL    HW236201   6.263   6.041   0.810 -0.1203 -1.0181 -0.6226
11403SOL     OW36202   6.453   8.065   1.313  0.3910  0.0649  0.2940
11403SOL    HW136203   6.386   8.005   1.349  0.3798 -0.6877 -0.9142
11403SOL    HW236204   6.477   8.121   1.386 -0.2893 -0.8191  1.2226
11404SOL     OW36205   2.597   6.821   4.089 -0.7339  0.0630 -0.2154
11404SOL    HW136206   2.656   6.897   4.093 -1.1646  0.3493  1.2014
11404SOL    HW236207   2.513   6.857   4.060 -0.8257  0.0600  0.0449
11405SOL     OW36208   0.059   8.588   5.546 -0.4402  0.1941 -0.6787
11405SOL    HW136209   0.025   8.523   5.484 -0.6176 -0.5969  0.2300
11405SOL    HW236210  -0.018   8.620   5.592 -0.2171  0.1689 -0.2883
11406SOL     OW36211   6.308   7.100   7.643 -0.1203  0.2621 -0.3725
11406SOL    HW136212   6.399   7.107   7.670  0.4327  0.4131 -2.1272
11406SOL    HW236213   6.294   7.006   7.629  0.5051  0.4118 -2.3096
11407SOL     OW36214   1.976   0.275   1.693 -0.2880  0.2850 -0.4465
11407SOL    HW136215   2.032   0.301   1.620 -0.8515  1.0192 -0.6289
11407SOL    HW236216   1.949   0.186   1.671  3.3553 -1.4371  1.2085
11408SOL     OW36217   0.372   4.465   7.545 -0.1886 -0.0296 -0.8532
11408SOL    HW136218   0.325   4.461   7.629  2.8723  1.0458  1.0878
11408SOL    HW236219   0.327   4.534   7.496 -1.2957  0.1761  0.3963
11409SOL     OW36220   4.532   4.567   4.130 -0.0742 -0.2473 -0.0167
11409SOL    HW136221   4.463   4.608   4.183  1.0472  1.8534 -0.0777
11409SOL    HW236222   4.613   4.583   4.179  0.4998 -1.9300 -0.3575
11410SOL     OW36223   0.271   8.765   5.916 -0.4708  0.2639  0.0388
11410SOL    HW136224   0.275   8.819   5.837 -0.9525 -0.8084 -0.7359
11410SOL    HW236225   0.362   8.761   5.946 -0.5456  2.2384  0.6465
11411SOL     OW36226   6.347   2.974   2.736  0.3712 -0.4080  0.2543
11411SOL    HW136227   6.353   2.968   2.832  0.9161 -2.9167  0.1437
11411SOL    HW236228   6.360   2.884   2.706 -0.7160  0.1641 -2.1597
11412SOL     OW36229   4.355   5.924   1.581  0.6457  0.3544  0.1490
11412SOL    HW136230   4.273   5.934   1.532  0.5212  2.9761  0.7482
11412SOL    HW236231   4.334   5.861   1.650 -0.4358 -0.0784 -0.5462
11413SOL     OW36232   5.455   7.564   5.336  0.2016 -0.1138 -0.6071
11413SOL    HW136233   5.455   7.505   5.412 -0.0462 -0.0200 -0.5320
11413SOL    HW236234   5.493   7.512   5.265 -0.1362 -0.4088 -0.5741
11414SOL     OW36235   3.865   4.221   7.746 -0.2647  0.9056  0.7355
11414SOL    HW136236   3.824   4.137   7.761 -0.3989  0.6915 -0.6476
11414SOL    HW236237   3.794   4.277   7.713 -0.1256  1.4901  1.4005
11415SOL     OW36238   0.525   6.934   2.742  0.7489 -0.2128 -0.3810
11415SOL    HW136239   0.451   6.882   2.710  0.6556 -0.2283 -0.1427
11415SOL    HW236240   0.541   6.997   2.672  0.4439 -0.1407 -0.3900
11416SOL     OW36241   4.452   7.400   3.755  0.3765  0.1970 -0.2623
11416SOL    HW136242   4.479   7.324   3.704  1.0188  0.9148 -1.0285
11416SOL    HW236243   4.533   7.437   3.789 -0.0144 -0.0169  0.9273
11417SOL     OW36244   3.062   6.215   3.393  0.5590 -0.3691  0.0595
11417SOL    HW136245   3.149   6.204   3.432  0.4380  2.2138  1.2775
11417SOL    HW236246   3.006   6.238   3.467 -0.6676  0.2938 -1.0366
11418SOL     OW36247   6.451   1.667   0.871 -0.2760 -0.2712 -0.0221
11418SOL    HW136248   6.429   1.664   0.964 -1.4316 -1.5802 -0.2940
11418SOL    HW236249   6.404   1.744   0.838  1.1030  0.9049  0.6677
11419SOL     OW36250   7.140   4.998   2.237 -0.0263 -0.1876 -0.0605
11419SOL    HW136251   7.153   5.052   2.315 -1.0537  0.9093 -0.6205
11419SOL    HW236252   7.080   5.049   2.182  0.4364 -1.0761 -1.4382
11420SOL     OW36253   8.602   7.964   2.983  0.0729 -0.0205  0.3286
11420SOL    HW136254   8.581   7.966   2.889  1.3637  0.8105  0.0328
11420SOL    HW236255   8.684   8.013   2.990 -0.8172  1.3016  2.1124
11421SOL     OW36256   4.529   6.632   7.879  0.0414  0.4471 -0.2117
11421SOL    HW136257   4.471   6.698   7.916 -0.8211  0.1151 -0.9273
11421SOL    HW236258   4.514   6.554   7.932 -0.8306  0.1116 -0.9324
11422SOL     OW36259   7.779   0.055   4.404  0.2439 -0.5819 -0.2985
11422SOL    HW136260   7.756  -0.038   4.393 -1.5634 -0.3016  0.6405
11422SOL    HW236261   7.849   0.070   4.341 -2.9779 -1.3137 -4.5089
11423SOL     OW36262   2.220   5.837   1.816 -0.2250 -0.1739  0.6399
11423SOL    HW136263   2.301   5.799   1.780 -0.0954 -0.1514  0.9058
11423SOL    HW236264   2.212   5.798   1.903 -0.4018 -0.0327  0.6872
11424SOL     OW36265   2.930   5.696   5.205 -0.1666  0.1143  0.4015
11424SOL    HW136266   2.876   5.621   5.229 -1.4965  0.3758 -1.5302
11424SOL    HW236267   2.873   5.772   5.217  0.1699  0.5234 -0.5086
11425SOL     OW36268   2.564   7.918   4.184  0.4933  0.4478 -0.5976
11425SOL    HW136269   2.472   7.940   4.200  1.0295  1.0045  2.3381
11425SOL    HW236270   2.561   7.848   4.120 -1.9473  0.7605 -0.9250
11426SOL     OW36271   6.983   2.777   0.395 -0.0083 -0.3391  0.0660
11426SOL    HW136272   6.968   2.871   0.389  2.3224  0.0005 -1.1061
11426SOL    HW236273   6.913   2.738   0.342 -0.0577  0.8253 -0.7572
11427SOL     OW36274   5.377   6.250   6.981 -0.4604  0.1656  0.0906
11427SOL    HW136275   5.342   6.297   7.058  0.1215  1.0903 -0.1993
11427SOL    HW236276   5.471   6.261   6.987 -0.3886 -0.0638 -0.5708
11428SOL     OW36277   5.419   5.729   3.250  0.2716  0.0940 -0.3747
11428SOL    HW136278   5.465   5.787   3.190  1.1481  0.3774  0.5657
11428SOL    HW236279   5.386   5.786   3.319  0.3097 -0.4025  0.0569
11429SOL     OW36280   6.585   3.792   1.509 -0.6069 -0.3769 -0.2892
11429SOL    HW136281   6.661   3.844   1.536 -1.3958  0.4385  0.4375
11429SOL    HW236282   6.534   3.780   1.590 -0.6795 -1.9083 -0.5240
11430SOL     OW36283   2.222   4.053   5.090  0.1430 -0.1814  0.1551
11430SOL    HW136284   2.217   3.959   5.111 -1.8788 -0.1484  0.0392
11430SOL    HW236285   2.157   4.065   5.021  0.4578  1.3096  0.0956
11431SOL     OW36286   4.998   5.142   8.703  0.1429  0.0594 -0.0385
11431SOL    HW136287   5.050   5.211   8.662  0.1222 -1.4119 -2.7749
11431SOL    HW236288   5.028   5.061   8.662  0.0901 -1.6232  2.9748
11432SOL     OW36289   0.304   1.715   8.739  0.1839  0.0178 -0.4042
11432SOL    HW136290   0.250   1.640   8.714 -1.7226  0.6223  1.4954
11432SOL    HW236291   0.291   1.779   8.669  0.9437 -1.0055 -1.4927
11433SOL     OW36292   1.564   4.163   5.800 -0.3133 -0.1175  0.2406
11433SOL    HW136293   1.530   4.111   5.726 -1.9174  0.6739  0.3811
11433SOL    HW236294   1.657   4.141   5.804 -0.0711  0.1556 -2.3020
11434SOL     OW36295   7.889   5.613   3.325 -0.5069  0.1861  0.5617
11434SOL    HW136296   7.957   5.639   3.388  0.3383 -3.5399  1.4285
11434SOL    HW236297   7.817   5.581   3.378 -2.3504  2.4759 -0.3975
11435SOL     OW36298   5.714   0.346   7.945  0.6772 -0.5323  0.2657
11435SOL    HW136299   5.639   0.302   7.905 -0.3306  0.9408  0.4818
11435SOL    HW236300   5.676   0.418   7.995  2.3336  1.1752 -0.8282
11436SOL     OW36301   5.520   0.189   3.906  0.0692  0.5839  0.1423
11436SOL    HW136302   5.529   0.238   3.825 -1.2401 -1.4931 -1.3588
11436SOL    HW236303   5.427   0.167   3.911  0.0193  1.0490  2.4889
11437SOL     OW36304   4.645   1.718   1.982 -0.4322 -0.2109  0.3893
11437SOL    HW136305   4.581   1.763   1.927  0.3992  0.5053 -0.0054
11437SOL    HW236306   4.599   1.639   2.012 -0.4631 -1.4371 -2.5467
11438SOL     OW36307   4.034   1.937   8.853  0.1315  0.5936 -0.5533
11438SOL    HW136308   3.998   1.937   8.764 -0.8449 -0.2496 -0.1769
11438SOL    HW236309   4.013   1.850   8.887  1.0409  0.6932  0.2900
11439SOL     OW36310   3.493   0.219   7.554 -0.0584  0.2197 -0.3891
11439SOL    HW136311   3.514   0.150   7.616 -0.0892 -0.7662 -1.4340
11439SOL    HW236312   3.403   0.199   7.526  0.5266 -0.3560 -1.9773
11440SOL     OW36313   3.740   4.302   6.157 -0.0742 -0.3926  0.2129
11440SOL    HW136314   3.776   4.362   6.223  0.9236 -1.1586  0.3781
11440SOL    HW236315   3.815   4.278   6.103 -0.0254 -3.0410  1.3344
11441SOL     OW36316   5.360   2.495   5.175  0.2130 -0.8506 -0.4400
11441SOL    HW136317   5.300   2.527   5.243 -0.4036 -0.6178 -1.0796
11441SOL    HW236318   5.423   2.441   5.222 -1.3729 -2.3408  0.0806
11442SOL     OW36319   5.623   1.827   7.977  0.2942  0.2087  0.0648
11442SOL    HW136320   5.569   1.842   8.055 -1.8175  0.0422 -1.2872
11442SOL    HW236321   5.633   1.915   7.939  2.4840  0.5082  1.1625
11443SOL     OW36322   7.886   6.376   7.598 -0.0191 -0.0239 -0.0522
11443SOL    HW136323   7.977   6.368   7.627 -0.0726 -2.8133 -0.3590
11443SOL    HW236324   7.890   6.365   7.503 -0.5155  2.0583 -0.3540
11444SOL     OW36325   1.354   2.602   7.293  0.0628 -0.6642  0.1991
11444SOL    HW136326   1.316   2.520   7.324  1.8762 -0.8866  2.0945
11444SOL    HW236327   1.306   2.670   7.342 -0.8360 -0.6025 -0.7203
11445SOL     OW36328   7.497   3.543   6.525 -0.2402 -0.4186  0.5117
11445SOL    HW136329   7.409   3.578   6.540 -0.0660  0.0402  0.4724
11445SOL    HW236330   7.487   3.448   6.538 -0.2437 -0.1595  3.0246
11446SOL     OW36331   8.781   0.426   5.429 -0.1727 -0.5154 -0.0545
11446SOL    HW136332   8.840   0.499   5.447 -0.2206 -0.9382  2.0621
11446SOL    HW236333   8.838   0.355   5.401  0.1202 -0.3652  0.1593
11447SOL     OW36334   4.621   7.817   1.502  0.5577 -0.4484 -0.0716
11447SOL    HW136335   4.692   7.878   1.522  0.3198  0.1444 -0.9363
11447SOL    HW236336   4.544   7.857   1.543  0.1257  0.6176 -1.8212
11448SOL     OW36337   8.148   3.872   4.510 -0.2015 -0.0947  0.0446
11448SOL    HW136338   8.102   3.801   4.555 -1.1858  0.9684  0.7718
11448SOL    HW236339   8.239   3.862   4.536  0.0969 -2.3541 -1.5515
11449SOL     OW36340   3.761   3.486   7.239 -0.0009  0.1197 -0.0325
11449SOL    HW136341   3.687   3.486   7.299  0.1228  0.6064  0.1234
11449SOL    HW236342   3.761   3.573   7.201  0.1924 -0.0422 -0.4055
11450SOL     OW36343   0.177   6.062   4.288 -0.0691  0.1763 -0.2993
11450SOL    HW136344   0.265   6.076   4.252  0.4627  1.7636  1.5028
11450SOL    HW236345   0.130   6.144   4.271 -0.2488  0.4340  1.3283
11451SOL     OW36346   8.581   0.370   7.057  1.1024  0.1757 -0.0978
11451SOL    HW136347   8.589   0.406   7.145  1.5269 -2.5495  1.0625
11451SOL    HW236348   8.536   0.286   7.069  2.6075 -1.0309 -2.2352
11452SOL     OW36349   3.832   1.465   7.193 -0.4369 -0.3935 -0.1744
11452SOL    HW136350   3.911   1.412   7.205 -0.7047 -0.6026  0.7159
11452SOL    HW236351   3.850   1.516   7.114  0.4347 -0.7191 -0.1998
11453SOL     OW36352   1.091   2.000   4.378  0.0748 -0.3194 -0.3709
11453SOL    HW136353   1.022   2.049   4.422  0.2081 -0.2314 -0.2586
11453SOL    HW236354   1.169   2.018   4.430 -0.3209 -2.5907  1.1275
11454SOL     OW36355   4.220   2.964   6.898  0.1655 -0.1269  0.0662
11454SOL    HW136356   4.186   2.875   6.906  2.7469 -1.2700 -0.5842
11454SOL    HW236357   4.262   2.981   6.982 -0.1130  0.3914  0.1004
11455SOL     OW36358   4.818   7.652   8.403 -0.1642  0.4185  0.1929
11455SOL    HW136359   4.738   7.655   8.456  0.9887  0.2700  2.0330
11455SOL    HW236360   4.870   7.726   8.435  2.2901 -1.9761  2.2716
11456SOL     OW36361   7.752   7.369   0.239  0.3884  0.1209 -0.1748
11456SOL    HW136362   7.688   7.332   0.300  0.6167 -0.8678 -0.5193
11456SOL    HW236363   7.836   7.359   0.284  0.4509  0.2192 -0.2705
11457SOL     OW36364   7.746   3.976   8.643  0.2281  0.6612  0.2961
11457SOL    HW136365   7.699   4.040   8.588  0.0013  0.5056  0.3055
11457SOL    HW236366   7.749   3.897   8.590  2.4564  1.2955 -0.6164
11458SOL     OW36367   0.302   0.986   4.414 -0.5758 -0.3437 -0.2222
11458SOL    HW136368   0.296   0.893   4.433 -0.1289 -0.4074 -0.3870
11458SOL    HW236369   0.333   1.025   4.496  0.7649 -0.5438 -0.6093
11459SOL     OW36370   5.419   3.693   6.482 -0.2816 -0.3604 -0.0297
11459SOL    HW136371   5.393   3.745   6.558 -0.5563 -1.1765  0.4487
11459SOL    HW236372   5.403   3.602   6.508  0.7696 -0.7350 -0.6210
11460SOL     OW36373   3.341   2.752   2.323  0.2849  0.0550  0.3155
11460SOL    HW136374   3.296   2.667   2.318  1.0965 -0.3512 -3.5507
11460SOL    HW236375   3.386   2.751   2.407 -1.2577 -2.4841  1.2343
11461SOL     OW36376   8.884   2.912   1.860 -0.6841  0.1670 -0.3435
11461SOL    HW136377   8.873   2.845   1.793  0.0288  0.1393 -0.4402
11461SOL    HW236378   8.867   2.866   1.942  2.9673 -1.0245 -0.1038
11462SOL     OW36379   3.868   6.977   2.833  0.3118 -0.2358 -0.6221
11462SOL    HW136380   3.893   6.991   2.741 -0.7941  2.2163 -0.6488
11462SOL    HW236381   3.898   7.057   2.877 -1.0382 -0.4357  0.7111
11463SOL     OW36382   8.193   7.438   6.641  0.2446 -0.5112 -0.1790
11463SOL    HW136383   8.288   7.439   6.628  0.4142  0.6761  0.9138
11463SOL    HW236384   8.161   7.512   6.590  0.1239  0.0936  0.7465
11464SOL     OW36385   6.200   6.352   3.666 -0.0486 -0.1154 -0.4750
11464SOL    HW136386   6.124   6.303   3.636 -0.6884  1.3238 -1.3086
11464SOL    HW236387   6.271   6.324   3.607 -0.4267 -0.0010 -0.9940
11465SOL     OW36388   1.669   1.126   6.801  0.7081 -1.3857 -0.1671
11465SOL    HW136389   1.622   1.124   6.718 -1.0209 -1.0493  0.7650
11465SOL    HW236390   1.759   1.101   6.778  1.0109  1.4111 -2.5872
11466SOL     OW36391   4.036   4.397   2.008  0.4041 -0.1469  0.3447
11466SOL    HW136392   4.051   4.470   2.068  0.1398 -1.6581  2.3593
11466SOL    HW236393   4.124   4.365   1.987  0.6016 -2.7640  4.1496
11467SOL     OW36394   7.800   4.620   0.719  0.2274  0.2645  0.1564
11467SOL    HW136395   7.773   4.533   0.748  0.6146  0.6444  1.7584
11467SOL    HW236396   7.745   4.638   0.643 -2.1549 -0.0924  1.6790
11468SOL     OW36397   2.572   2.682   2.013 -0.0369  0.0500  0.1297
11468SOL    HW136398   2.524   2.605   2.043  0.8457 -0.7582 -0.4573
11468SOL    HW236399   2.633   2.701   2.084 -0.0458  0.0192  0.1456
11469SOL     OW36400   0.339   2.309   7.470 -0.4959 -0.4566  0.0078
11469SOL    HW136401   0.360   2.339   7.382 -0.3060 -1.6966 -0.3886
11469SOL    HW236402   0.419   2.326   7.521  0.4638 -2.4032 -0.7775
11470SOL     OW36403   0.333   8.522   8.838 -0.1154 -0.0522 -0.3113
11470SOL    HW136404   0.342   8.461   8.911  1.3501 -1.2125 -1.3898
11470SOL    HW236405   0.410   8.579   8.845  0.2995 -0.4880 -1.2070
11471SOL     OW36406   6.538   5.661   4.987 -0.0634  0.6474 -0.6515
11471SOL    HW136407   6.445   5.639   4.987 -0.0962  0.7833 -0.8291
11471SOL    HW236408   6.566   5.643   5.076 -0.0027 -0.4505 -0.8848
11472SOL     OW36409   6.912   4.000   6.555  0.4029 -0.0472  0.1787
11472SOL    HW136410   6.971   3.974   6.484  1.9885  0.5264  1.2036
11472SOL    HW236411   6.850   4.060   6.514  2.5344  1.9328 -0.4191
11473SOL     OW36412   5.516   2.197   3.636 -0.2221 -0.0424  0.4611
11473SOL    HW136413   5.496   2.117   3.589 -0.2841  0.4195 -0.3109
11473SOL    HW236414   5.593   2.233   3.592 -0.3638  0.4685  0.6158
11474SOL     OW36415   0.919   3.487   5.923  0.0506 -0.1669  0.0625
11474SOL    HW136416   1.005   3.488   5.964 -0.0984 -1.5454  0.4309
11474SOL    HW236417   0.869   3.423   5.973 -1.1442  0.4793 -0.2616
11475SOL     OW36418   5.999   5.738   1.874 -0.6586  0.0197  0.1960
11475SOL    HW136419   6.057   5.809   1.846 -0.5928 -0.0075  0.2635
11475SOL    HW236420   6.048   5.693   1.944  0.3649 -1.5924 -1.4639
11476SOL     OW36421   5.264   8.820   4.831 -0.9966 -0.1803  0.4466
11476SOL    HW136422   5.172   8.794   4.829 -1.1968  0.2509  2.2620
11476SOL    HW236423   5.312   8.739   4.849 -0.8494 -0.6455 -1.7319
11477SOL     OW36424   0.338   3.532   5.270  0.3809  0.5058 -0.2894
11477SOL    HW136425   0.249   3.498   5.281  0.7314  0.0434  1.4127
11477SOL    HW236426   0.365   3.501   5.184 -1.2441  1.0141 -1.0131
11478SOL     OW36427   1.069   5.757   3.247  0.2183 -0.3299  0.1073
11478SOL    HW136428   1.142   5.733   3.304  1.0643  2.0261  0.1230
11478SOL    HW236429   1.089   5.846   3.219 -1.4655 -0.4971 -1.8459
11479SOL     OW36430   8.711   1.552   4.246  0.3461  0.2626 -0.1621
11479SOL    HW136431   8.627   1.507   4.255 -0.1367  0.7763 -1.7194
11479SOL    HW236432   8.693   1.642   4.274  0.8929 -0.0673  1.3508
11480SOL     OW36433   5.684   0.180   8.446  0.2002  0.3870  0.7659
11480SOL    HW136434   5.676   0.169   8.541 -0.2071  1.0736  0.8192
11480SOL    HW236435   5.629   0.111   8.409  2.0607 -1.2838  0.9749
11481SOL     OW36436   0.458   8.296   0.703  0.3640  0.0005 -0.3002
11481SOL    HW136437   0.466   8.229   0.771 -1.3168  0.0992  0.0310
11481SOL    HW236438   0.368   8.288   0.670 -0.2773  2.7362  0.4703
11482SOL     OW36439   8.569   4.755   3.437 -0.0289  0.0922 -0.2736
11482SOL    HW136440   8.655   4.725   3.409 -0.7279 -0.2370 -2.1746
11482SOL    HW236441   8.588   4.825   3.500  1.6062 -1.3797  0.9777
11483SOL     OW36442   3.805   8.051   7.767  0.3212 -0.2061  0.2620
11483SOL    HW136443   3.716   8.072   7.795  0.1714 -0.5327  0.0467
11483SOL    HW236444   3.843   8.135   7.741  0.4057  0.0736  1.2577
11484SOL     OW36445   7.773   2.532   4.078  0.7099 -0.0951 -0.0064
11484SOL    HW136446   7.725   2.451   4.064  0.5779  0.1695 -1.1661
11484SOL    HW236447   7.706   2.600   4.074  0.7070  0.0577  1.6476
11485SOL     OW36448   3.474   6.000   1.361  0.2682  0.4554  0.3916
11485SOL    HW136449   3.384   6.020   1.333 -0.1145  0.9810  1.9179
11485SOL    HW236450   3.498   6.072   1.419  0.4771 -1.2943  2.5834
11486SOL     OW36451   8.521   2.696   3.069  0.0458 -0.4113 -0.6956
11486SOL    HW136452   8.580   2.625   3.092 -0.2106 -0.6447 -0.7549
11486SOL    HW236453   8.433   2.658   3.076 -0.3314  0.7000  2.3648
11487SOL     OW36454   7.310   5.244   8.663  0.1524  0.3193  0.3811
11487SOL    HW136455   7.253   5.299   8.718 -1.3092 -1.8055  1.1389
11487SOL    HW236456   7.383   5.301   8.640 -0.7070  2.2293  2.0252
11488SOL     OW36457   1.078   5.614   3.701  0.0075  0.3847  0.7906
11488SOL    HW136458   1.030   5.669   3.762  0.4118  1.0288  0.5339
11488SOL    HW236459   1.128   5.675   3.647  0.5731 -0.2394  0.5967
11489SOL     OW36460   8.268   0.289   6.210  0.1507  0.5455 -0.1128
11489SOL    HW136461   8.205   0.284   6.138  1.4046 -2.5346 -1.1448
11489SOL    HW236462   8.214   0.287   6.289 -1.1219  0.9095 -0.9384
11490SOL     OW36463   3.647   1.543   3.753  0.7515  0.1435  0.3951
11490SOL    HW136464   3.739   1.567   3.771  1.4539 -1.4044 -0.9240
11490SOL    HW236465   3.601   1.565   3.834  2.4509  0.1161  1.4242
11491SOL     OW36466   1.046   0.783   8.702 -0.0944  0.5687  0.0445
11491SOL    HW136467   1.001   0.867   8.692 -0.2020  0.3566 -1.5810
11491SOL    HW236468   1.062   0.775   8.796 -0.3706  2.2498  0.2674
11492SOL     OW36469   4.802   6.777   3.416 -0.1277 -0.0234  0.4892
11492SOL    HW136470   4.846   6.819   3.490 -1.8033 -0.7244  1.9622
11492SOL    HW236471   4.816   6.683   3.431 -1.9692 -0.2562  0.9463
11493SOL     OW36472   4.110   4.651   6.501  0.1343  0.4227 -0.0916
11493SOL    HW136473   4.136   4.607   6.421 -0.4351  0.8589 -0.5297
11493SOL    HW236474   4.161   4.609   6.570 -1.4053 -1.9339 -0.2775
11494SOL     OW36475   7.792   1.582   0.689  0.1831  0.8259 -0.0077
11494SOL    HW136476   7.778   1.653   0.627 -1.5216  0.3367 -0.2417
11494SOL    HW236477   7.860   1.528   0.649  0.5392  1.5933 -0.4601
11495SOL     OW36478   1.144   6.060   1.198  0.0134 -0.1162  0.3359
11495SOL    HW136479   1.224   6.057   1.145 -0.2474  3.3551 -0.4767
11495SOL    HW236480   1.173   6.040   1.286  1.7498  0.7664 -0.0032
11496SOL     OW36481   2.090   3.632   6.308 -0.1022 -0.2810  0.4110
11496SOL    HW136482   2.167   3.575   6.308  1.2033  1.4146  0.8556
11496SOL    HW236483   2.041   3.606   6.230  0.8486 -1.4515  0.1706
11497SOL     OW36484   8.545   2.776   7.190 -0.1490 -0.3653 -0.0109
11497SOL    HW136485   8.470   2.800   7.135  1.3120  0.8565 -1.5599
11497SOL    HW236486   8.545   2.680   7.189 -1.0166 -0.3757 -0.9443
11498SOL     OW36487   1.883   8.077   3.574  0.4847 -0.3605 -0.2036
11498SOL    HW136488   1.867   8.011   3.642  1.4192  0.7793  1.1876
11498SOL    HW236489   1.976   8.100   3.585  0.8949 -0.7522 -2.4559
11499SOL     OW36490   4.889   8.779   4.089  0.0647  0.8421 -0.0306
11499SOL    HW136491   4.893   8.823   4.004 -1.7956 -0.5764 -0.9193
11499SOL    HW236492   4.798   8.750   4.098  0.6939 -0.9147  1.4735
11500SOL     OW36493   3.037   0.000   0.742  0.1005  0.0128  0.1633
11500SOL    HW136494   3.083   0.004   0.825  1.3886  0.8996 -0.5526
11500SOL    HW236495   3.074   0.072   0.691 -1.9918  0.6811 -0.5115
11501SOL     OW36496   6.001   5.584   2.708  0.4552 -0.4270  0.7551
11501SOL    HW136497   6.026   5.660   2.655 -1.6085 -0.2132 -0.0096
11501SOL    HW236498   5.995   5.619   2.797  1.4342 -0.1802  0.7390
11502SOL     OW36499   5.724   7.838   1.196 -0.5259  0.1100 -0.0715
11502SOL    HW136500   5.774   7.920   1.201 -0.0462 -0.1861 -0.0599
11502SOL    HW236501   5.637   7.866   1.167 -0.1000  0.5317 -0.9989
11503SOL     OW36502   4.115   5.835   1.474 -0.7653 -0.0171  0.9910
11503SOL    HW136503   4.129   5.805   1.385 -1.3882  1.0656  0.5050
11503SOL    HW236504   4.093   5.756   1.523 -1.9688 -0.4220 -0.1468
11504SOL     OW36505   8.862   4.760   6.692  0.1552  0.4450  0.3621
11504SOL    HW136506   8.787   4.724   6.645  0.6922 -0.5479  0.2303
11504SOL    HW236507   8.885   4.692   6.756  2.5289 -0.4607 -1.3108
11505SOL     OW36508   1.373   4.578   5.566  0.5569 -0.6146  0.1195
11505SOL    HW136509   1.418   4.513   5.620  0.4210  0.4600  1.5982
11505SOL    HW236510   1.416   4.661   5.588 -0.1011 -0.0156 -0.7767
11506SOL     OW36511   4.193   3.072   1.712  0.1878  0.0446 -0.7090
11506SOL    HW136512   4.277   3.057   1.756 -0.0651  1.3169  0.2617
11506SOL    HW236513   4.217   3.089   1.621  0.7728 -1.9636 -0.9660
11507SOL     OW36514   7.991   7.250   7.712  0.1634 -0.0575  0.1335
11507SOL    HW136515   8.025   7.266   7.800 -0.0643 -0.9244  0.3871
11507SOL    HW236516   7.906   7.208   7.726 -0.6572  1.3110 -0.4944
11508SOL     OW36517   2.983   1.304   5.320  0.2070 -0.0421  0.1724
11508SOL    HW136518   3.000   1.345   5.405  0.2161 -0.5247  0.4012
11508SOL    HW236519   3.010   1.213   5.331  1.7048  0.2445 -0.8150
11509SOL     OW36520   4.958   6.568   0.528 -0.0679 -0.0230 -0.2878
11509SOL    HW136521   4.980   6.634   0.462  3.2818 -0.6733  0.0129
11509SOL    HW236522   4.897   6.613   0.587  0.6305  2.1875 -1.1482
11510SOL     OW36523   0.728   1.473   4.765 -0.2609  0.8026  0.1057
11510SOL    HW136524   0.743   1.544   4.827  0.9941 -1.0096  2.0325
11510SOL    HW236525   0.815   1.452   4.731 -0.3327 -0.8414  0.8418
11511SOL     OW36526   6.216   0.616   3.895 -0.1590 -0.8677  0.4301
11511SOL    HW136527   6.215   0.580   3.984  2.4520 -0.4401  0.7148
11511SOL    HW236528   6.188   0.543   3.839  0.6346 -1.9523  1.3926
11512SOL     OW36529   1.382   5.412   7.269  0.1570  0.0079  0.2982
11512SOL    HW136530   1.319   5.384   7.202  0.6535 -0.2602 -0.0736
11512SOL    HW236531   1.331   5.464   7.331 -0.1869  0.8230 -0.6451
11513SOL     OW36532   7.076   3.452   0.328  0.0217  0.4576 -0.0927
11513SOL    HW136533   7.057   3.531   0.379  0.1887  0.6628 -0.3417
11513SOL    HW236534   7.115   3.486   0.247 -1.3595  0.2100 -0.8951
11514SOL     OW36535   6.117   7.510   4.524 -0.7056 -0.1326  0.1526
11514SOL    HW136536   6.041   7.452   4.527 -0.8549  0.0201 -0.5088
11514SOL    HW236537   6.189   7.454   4.497 -0.8063 -0.0563 -0.2774
11515SOL     OW36538   8.224   8.355   0.902  1.0058 -0.0930 -0.9458
11515SOL    HW136539   8.217   8.310   0.987 -1.5349  0.3418 -0.8248
11515SOL    HW236540   8.290   8.306   0.854  2.4611 -0.4161  1.2362
11516SOL     OW36541   3.024   8.690   6.848 -0.3845 -0.1270 -0.0603
11516SOL    HW136542   3.037   8.638   6.928 -0.4293  0.6680  0.4785
11516SOL    HW236543   3.082   8.649   6.783 -1.8793 -2.0740 -0.2591
11517SOL     OW36544   5.150   8.453   3.334  0.0746 -0.2178 -0.8652
11517SOL    HW136545   5.181   8.486   3.250 -0.8969 -0.8618 -1.4995
11517SOL    HW236546   5.082   8.389   3.311 -0.0921 -0.5242  0.4048
11518SOL     OW36547   0.217   2.294   2.400  0.2396  0.0350 -0.0133
11518SOL    HW136548   0.135   2.246   2.385  0.0916  0.3398 -0.1938
11518SOL    HW236549   0.190   2.378   2.435  0.3298  0.9406 -1.9891
11519SOL     OW36550   2.264   0.347   1.795 -0.8930  0.2102 -0.1625
11519SOL    HW136551   2.236   0.422   1.743  0.6708  0.4487 -0.7218
11519SOL    HW236552   2.185   0.318   1.841 -1.6760  1.7483 -0.4853
11520SOL     OW36553   1.072   1.696   5.692  0.5830  0.1547 -0.5172
11520SOL    HW136554   1.027   1.776   5.721  0.2908  0.1502 -0.9544
11520SOL    HW236555   1.027   1.671   5.612 -0.3110 -1.2840  0.3902
11521SOL     OW36556   3.557   3.851   0.816  0.3616  0.6351  0.5761
11521SOL    HW136557   3.628   3.858   0.880 -0.2697 -1.5696  1.6114
11521SOL    HW236558   3.602   3.834   0.733  1.0962  0.3028  1.0287
11522SOL     OW36559   5.993   4.293   5.300 -0.2945 -0.0038  0.3756
11522SOL    HW136560   5.915   4.338   5.331 -1.3770 -1.5123 -0.0248
11522SOL    HW236561   6.038   4.357   5.244 -2.6492  0.1219 -1.5376
11523SOL     OW36562   7.411   2.011   1.811  0.1521 -0.3043 -0.5602
11523SOL    HW136563   7.464   1.940   1.846  0.9172  1.6810  2.7655
11523SOL    HW236564   7.470   2.087   1.810 -1.6115  1.1567 -0.2503
11524SOL     OW36565   6.934   5.204   4.620  0.2348  0.0336  0.2108
11524SOL    HW136566   6.928   5.148   4.544 -2.0559 -1.2567  1.2306
11524SOL    HW236567   6.846   5.201   4.660  1.0456  1.4361  2.3320
11525SOL     OW36568   1.120   7.500   4.561  0.1967  0.1470  0.2660
11525SOL    HW136569   1.154   7.563   4.498  0.7902  0.6522  1.0686
11525SOL    HW236570   1.198   7.466   4.606 -0.2520  0.3172  1.2112
11526SOL     OW36571   4.651   7.698   1.266 -0.2069  0.0036  0.1339
11526SOL    HW136572   4.606   7.615   1.280  0.5313 -0.6765 -1.4010
11526SOL    HW236573   4.659   7.735   1.354  0.1324 -1.8981  0.9520
11527SOL     OW36574   2.820   7.608   3.495 -0.3208 -0.8663  0.3360
11527SOL    HW136575   2.830   7.547   3.568  0.9491  2.0028  2.7373
11527SOL    HW236576   2.757   7.673   3.526 -0.7461 -0.2280 -1.6759
11528SOL     OW36577   6.428   6.833   5.666 -0.5831  0.2676  0.4124
11528SOL    HW136578   6.361   6.895   5.694 -0.8478 -0.7449  2.2019
11528SOL    HW236579   6.389   6.747   5.681  0.3957 -0.3453 -0.3967
11529SOL     OW36580   3.365   8.587   5.662  0.4350 -0.1173 -0.2784
11529SOL    HW136581   3.342   8.631   5.579 -1.4436 -2.4649 -1.0999
11529SOL    HW236582   3.293   8.608   5.721 -0.5393 -1.9995 -0.7092
11530SOL     OW36583   8.586   2.753   4.162 -0.0358  0.0016 -0.1389
11530SOL    HW136584   8.583   2.832   4.215 -0.7661 -0.3292  0.3356
11530SOL    HW236585   8.498   2.715   4.171  0.0298 -0.4025 -1.0622
11531SOL     OW36586   6.623   5.495   5.562  0.3707  0.2619 -0.4544
11531SOL    HW136587   6.656   5.568   5.510  0.8070  0.5054  0.1538
11531SOL    HW236588   6.551   5.532   5.613  1.5123  0.6515  0.9356
11532SOL     OW36589   2.539   3.208   6.392  0.3285 -0.4358 -0.5930
11532SOL    HW136590   2.606   3.275   6.379  0.7414 -1.0627 -1.9573
11532SOL    HW236591   2.536   3.194   6.486  0.2046  1.4949 -0.2801
11533SOL     OW36592   2.309   0.289   4.294 -0.0845 -0.1426  0.1244
11533SOL    HW136593   2.302   0.375   4.334  2.6154  0.5919 -0.8035
11533SOL    HW236594   2.264   0.298   4.210 -0.2152  0.2083  0.2295
11534SOL     OW36595   3.091   3.470   3.160  0.4640 -0.0325 -0.1749
11534SOL    HW136596   3.025   3.521   3.112  0.4752 -0.1731 -0.3421
11534SOL    HW236597   3.107   3.520   3.239  1.5854  1.0210 -1.0334
11535SOL     OW36598   5.762   6.113   6.460  0.0926 -0.1624  0.5464
11535SOL    HW136599   5.772   6.205   6.437 -0.9821  0.1837  1.4063
11535SOL    HW236600   5.673   6.105   6.493 -0.1156 -1.6796 -0.2522
11536SOL     OW36601   1.681   5.593   1.261 -0.0818 -0.2460 -0.0045
11536SOL    HW136602   1.707   5.515   1.310  1.0650  0.9595  1.3933
11536SOL    HW236603   1.652   5.559   1.176 -1.4481 -2.3330  1.2239
11537SOL     OW36604   6.913   6.922   5.538 -0.4480  0.1435  0.5264
11537SOL    HW136605   6.833   6.893   5.582 -0.4388 -0.7444 -0.0035
11537SOL    HW236606   6.885   6.939   5.448 -0.1925  0.5840  0.5298
11538SOL     OW36607   2.319   1.472   7.791 -0.1684 -0.2569 -0.3282
11538SOL    HW136608   2.235   1.511   7.818 -1.1569 -0.6102 -2.6616
11538SOL    HW236609   2.372   1.472   7.871 -2.4054 -0.1020  1.2513
11539SOL     OW36610   7.251   6.986   7.782  0.6656  0.1090 -0.1729
11539SOL    HW136611   7.186   6.969   7.850  1.6457 -0.1068  0.7318
11539SOL    HW236612   7.244   7.080   7.766 -0.2783 -0.0123 -0.5238
11540SOL     OW36613   0.398   5.640   3.987  0.1670  0.1129 -0.4778
11540SOL    HW136614   0.397   5.734   3.967 -0.6232 -0.1550 -1.8130
11540SOL    HW236615   0.322   5.627   4.044  1.3369  0.5515  1.3037
11541SOL     OW36616   6.822   2.432   0.480 -0.3447 -0.0472  0.3078
11541SOL    HW136617   6.734   2.395   0.488 -0.0662 -0.5481  1.3622
11541SOL    HW236618   6.821   2.481   0.398 -1.3650 -0.6967 -0.0847
11542SOL     OW36619   7.750   5.770   8.291 -0.4428 -0.2336 -0.2355
11542SOL    HW136620   7.808   5.703   8.254 -1.6147 -0.5846 -1.5126
11542SOL    HW236621   7.796   5.853   8.276  0.3050 -0.6023 -0.0432
11543SOL     OW36622   2.561   6.472   7.775  0.0458  0.1725 -0.2855
11543SOL    HW136623   2.587   6.408   7.709  0.6393 -0.8548  0.8917
11543SOL    HW236624   2.482   6.436   7.815 -0.2888  0.7648 -0.3965
11544SOL     OW36625   4.538   7.252   1.965 -0.2119  0.0895  0.2390
11544SOL    HW136626   4.510   7.227   2.053  0.5894 -0.2038  0.4198
11544SOL    HW236627   4.603   7.322   1.979  0.9462 -0.8979 -0.0354
11545SOL     OW36628   5.372   0.451   3.092  0.2586  0.0907  0.1001
11545SOL    HW136629   5.460   0.428   3.062  0.1330 -0.8818  0.4476
11545SOL    HW236630   5.347   0.380   3.151 -0.6924  0.4450  0.1475
11546SOL     OW36631   2.845   8.180   0.118  0.2631 -0.2464 -0.5944
11546SOL    HW136632   2.873   8.152   0.205  0.0708  0.2159 -0.3788
11546SOL    HW236633   2.854   8.102   0.063  1.4045 -0.2557 -0.4065
11547SOL     OW36634   3.047   5.515   1.962 -0.0475 -0.1986  0.2337
11547SOL    HW136635   2.955   5.520   1.934 -0.2899  0.0844  1.0589
11547SOL    HW236636   3.095   5.497   1.881 -0.6855  1.0404 -0.4557
11548SOL     OW36637   0.965   6.401   5.277 -0.5038  0.9842  0.0761
11548SOL    HW136638   0.870   6.411   5.279 -0.5698  0.3098  1.0072
11548SOL    HW236639   0.985   6.380   5.186 -1.3072  0.5734 -0.0138
11549SOL     OW36640   3.240   6.984   0.169 -0.4565 -0.1231 -0.2193
11549SOL    HW136641   3.303   7.046   0.205  0.2754 -1.1811  0.4024
11549SOL    HW236642   3.208   6.935   0.245 -1.3359 -0.2245 -0.6391
11550SOL     OW36643   0.694   1.336   7.560 -0.4818  0.1307  0.5190
11550SOL    HW136644   0.626   1.391   7.601  0.3121  3.1391 -1.8443
11550SOL    HW236645   0.753   1.398   7.518  1.6767 -2.5453 -0.7106
11551SOL     OW36646   3.996   3.133   7.207 -0.4367  0.4934 -0.3984
11551SOL    HW136647   3.993   3.040   7.185 -0.3338  0.8927 -2.2027
11551SOL    HW236648   4.080   3.163   7.174 -0.3894  1.2087  0.3345
11552SOL     OW36649   1.192   8.618   3.602  0.4925 -0.2353  0.3239
11552SOL    HW136650   1.196   8.617   3.698  0.2430 -1.7894  0.3448
11552SOL    HW236651   1.165   8.529   3.578 -0.9595  0.5521 -1.1338
11553SOL     OW36652   4.870   2.746   0.713 -0.4272 -0.0433 -0.0464
11553SOL    HW136653   4.907   2.825   0.671 -2.3065  1.5677  1.1721
11553SOL    HW236654   4.795   2.723   0.659 -1.2064  0.3719  0.8364
11554SOL     OW36655   8.554   7.658   6.968 -0.6424  0.3126 -0.3833
11554SOL    HW136656   8.618   7.635   6.901 -1.4869 -0.8229 -0.8476
11554SOL    HW236657   8.581   7.608   7.045 -0.6609  0.2551 -0.4142
11555SOL     OW36658   3.361   2.337   0.499 -0.2501 -0.1955 -0.3850
11555SOL    HW136659   3.272   2.369   0.512 -0.0443  0.0552  0.5121
11555SOL    HW236660   3.401   2.341   0.586  0.6302 -0.3228 -0.7684
11556SOL     OW36661   6.567   3.836   8.426 -0.1249  0.0120  0.4439
11556SOL    HW136662   6.592   3.884   8.347  0.4913  1.2791  1.3791
11556SOL    HW236663   6.601   3.748   8.412  0.6476  0.4192 -0.3658
11557SOL     OW36664   8.163   3.304   5.127 -0.6550  0.0026 -0.3027
11557SOL    HW136665   8.150   3.371   5.193  0.1042  0.6212 -0.7729
11557SOL    HW236666   8.119   3.227   5.163 -1.8040  0.8242  0.0993
11558SOL     OW36667   2.925   1.213   0.847  0.1866  0.3416  0.3637
11558SOL    HW136668   2.868   1.207   0.924 -0.0068 -1.4055  0.1353
11558SOL    HW236669   2.867   1.193   0.773  0.5330  1.2407 -0.1610
11559SOL     OW36670   8.439   8.046   4.343  0.5184 -0.3802 -0.3107
11559SOL    HW136671   8.393   8.129   4.332 -1.1847 -1.2397  0.0973
11559SOL    HW236672   8.524   8.060   4.301  0.3786  1.6539  0.0027
11560SOL     OW36673   5.780   0.448   6.881 -0.8061  0.2138 -0.3804
11560SOL    HW136674   5.727   0.411   6.811 -1.6985 -1.5475  1.1387
11560SOL    HW236675   5.835   0.375   6.911 -1.1134  0.6382  1.3457
11561SOL     OW36676   1.453   4.615   3.691 -0.5862  0.0329 -0.6154
11561SOL    HW136677   1.395   4.629   3.766 -0.0062  0.7395 -0.2734
11561SOL    HW236678   1.460   4.702   3.651  0.2780 -0.0222 -0.6049
11562SOL     OW36679   3.145   0.918   8.474  0.3634  0.1473 -0.1941
11562SOL    HW136680   3.085   0.899   8.402 -0.1144  0.4984  0.1010
11562SOL    HW236681   3.169   1.010   8.462  2.7799 -0.5808 -1.7063
11563SOL     OW36682   5.823   3.053   4.945  0.2835 -0.2470  0.2805
11563SOL    HW136683   5.751   3.036   4.884  0.3740 -1.7861  0.5560
11563SOL    HW236684   5.902   3.037   4.894  0.6449  3.7747 -0.7472
11564SOL     OW36685   6.699   4.106   6.417  0.8502  0.6668  0.8922
11564SOL    HW136686   6.623   4.133   6.470 -0.7942 -1.4644 -0.2119
11564SOL    HW236687   6.682   4.144   6.331  1.4497  0.7924  0.8306
11565SOL     OW36688   2.194   3.375   5.299 -0.0491  0.3348 -0.3992
11565SOL    HW136689   2.281   3.415   5.293  1.0800 -2.0216 -0.8532
11565SOL    HW236690   2.196   3.327   5.381 -1.3624  1.1409  0.1245
11566SOL     OW36691   7.634   4.162   4.010  0.0618 -0.7397  0.2667
11566SOL    HW136692   7.690   4.135   3.938  2.4454 -0.7001  1.9833
11566SOL    HW236693   7.549   4.121   3.992  0.7374 -1.2057 -2.1921
11567SOL     OW36694   2.517   6.946   1.709  0.1250  0.3622  0.1701
11567SOL    HW136695   2.424   6.939   1.686 -0.0485  0.8370  0.6803
11567SOL    HW236696   2.548   6.856   1.713 -0.6430  0.1232  1.2578
11568SOL     OW36697   7.130   8.151   6.621  0.0530  0.2732  0.0206
11568SOL    HW136698   7.127   8.176   6.529  2.1691  1.1128  0.1333
11568SOL    HW236699   7.147   8.057   6.621 -0.3078  0.2069 -0.4240
11569SOL     OW36700   8.632   8.875   5.695 -0.6815  0.0116 -0.5158
11569SOL    HW136701   8.557   8.815   5.704 -0.2785 -0.2844  1.2099
11569SOL    HW236702   8.670   8.879   5.783  1.2000  0.3400 -1.3008
11570SOL     OW36703   7.688   0.141   1.320 -0.4229 -0.7691  0.1210
11570SOL    HW136704   7.780   0.130   1.296 -0.8939 -3.8132 -0.6658
11570SOL    HW236705   7.674   0.081   1.393 -1.8017 -0.3394  0.2476
11571SOL     OW36706   8.733   7.620   1.826 -0.1564 -0.2279 -0.1267
11571SOL    HW136707   8.772   7.570   1.754  1.2930  1.1604 -0.3557
11571SOL    HW236708   8.673   7.682   1.784 -0.4995 -0.4633  0.0059
11572SOL     OW36709   8.165   1.684   7.941 -0.3749 -0.5313 -0.0808
11572SOL    HW136710   8.155   1.631   8.020 -0.8046 -0.1859  0.0996
11572SOL    HW236711   8.245   1.651   7.900 -0.0555 -0.6062  0.5827
11573SOL     OW36712   4.121   4.723   6.015 -0.0589  0.0006  0.1455
11573SOL    HW136713   4.118   4.768   5.931  0.4477 -1.6136 -0.7859
11573SOL    HW236714   4.212   4.695   6.024  0.3010  1.6140  2.0765
11574SOL     OW36715   0.818   4.341   1.767 -0.6888  0.1516  0.0071
11574SOL    HW136716   0.905   4.377   1.750 -1.6041  1.6175 -2.2155
11574SOL    HW236717   0.822   4.251   1.737  0.5168 -0.3595  1.6222
11575SOL     OW36718   6.458   4.053   5.509  0.3290 -0.1395 -0.4468
11575SOL    HW136719   6.409   4.130   5.480 -1.1693 -0.4728  1.0375
11575SOL    HW236720   6.505   4.024   5.431  0.2671  1.7608 -1.2544
11576SOL     OW36721   6.794   3.272   5.299 -0.0921  0.6992 -0.2051
11576SOL    HW136722   6.805   3.234   5.212  0.1283  1.0981 -0.3523
11576SOL    HW236723   6.759   3.359   5.282 -0.6751  0.5364  0.1342
11577SOL     OW36724   2.016   2.277   2.598  0.3643 -0.0040  0.4444
11577SOL    HW136725   2.109   2.299   2.592  0.0568  1.3108  0.1505
11577SOL    HW236726   1.971   2.361   2.593 -0.8542 -0.6304  0.4474
11578SOL     OW36727   5.007   0.808   1.850 -0.2815  0.1444  0.5435
11578SOL    HW136728   5.095   0.815   1.814 -0.4202 -0.6774  0.0422
11578SOL    HW236729   4.952   0.854   1.787 -0.4995 -1.1477 -0.2468
11579SOL     OW36730   3.280   2.164   6.439 -0.2042 -0.0086  0.3533
11579SOL    HW136731   3.359   2.131   6.396 -1.2235 -1.5232 -0.5009
11579SOL    HW236732   3.289   2.139   6.531  0.6091  0.4642  0.4060
11580SOL     OW36733   3.910   7.745   6.390  0.0399  0.1199 -0.3487
11580SOL    HW136734   3.998   7.763   6.424 -0.2395  1.0527 -0.0823
11580SOL    HW236735   3.873   7.681   6.451  0.1665  0.5026  0.1407
11581SOL     OW36736   7.148   7.278   5.020 -0.1347 -0.9775  0.2618
11581SOL    HW136737   7.204   7.243   5.089 -0.0976  1.3391  1.4884
11581SOL    HW236738   7.087   7.336   5.066  0.6347  1.5788 -1.7314
11582SOL     OW36739   2.752   3.334   1.200  0.1253 -0.1962 -0.1471
11582SOL    HW136740   2.800   3.326   1.117 -0.0787  0.8818 -0.3897
11582SOL    HW236741   2.663   3.354   1.173 -0.2443 -1.1658  0.3241
11583SOL     OW36742   0.048   6.919   0.545  0.8334 -0.6064 -0.3771
11583SOL    HW136743   0.050   7.011   0.572 -4.5972 -0.3471  0.3248
11583SOL    HW236744   0.027   6.871   0.625 -0.1937 -1.8804 -1.3518
11584SOL     OW36745   7.621   1.313   1.223 -0.7719 -0.1723  0.2555
11584SOL    HW136746   7.657   1.365   1.151  0.1151 -1.3769 -0.1927
11584SOL    HW236747   7.682   1.326   1.295 -1.0712  0.1623  0.4528
11585SOL     OW36748   8.655   0.161   4.521 -0.1577 -0.0306 -0.5369
11585SOL    HW136749   8.671   0.175   4.428 -0.6956 -0.4493 -0.6972
11585SOL    HW236750   8.597   0.232   4.547 -0.7311 -0.4229 -0.7321
11586SOL     OW36751   1.838   2.124   6.876  0.0392 -0.6759  0.6305
11586SOL    HW136752   1.892   2.119   6.954 -0.5687 -0.2074  1.0920
11586SOL    HW236753   1.860   2.046   6.825  2.1222  0.1664  0.1546
11587SOL     OW36754   2.149   2.346   1.016 -0.0180 -0.0501 -0.5276
11587SOL    HW136755   2.167   2.403   0.941 -0.7095 -1.4258 -1.7943
11587SOL    HW236756   2.111   2.267   0.977 -1.4276 -0.3697  1.3824
11588SOL     OW36757   7.397   2.355   2.717  0.0171  0.2316 -0.0612
11588SOL    HW136758   7.432   2.293   2.653  0.5456  1.8081 -1.3776
11588SOL    HW236759   7.332   2.406   2.667  0.3585  1.4166  0.6707
11589SOL     OW36760   4.721   1.218   3.597  0.1248  0.4243 -0.6518
11589SOL    HW136761   4.724   1.293   3.656  0.3034  0.0248 -0.1418
11589SOL    HW236762   4.654   1.161   3.634  0.5618 -0.0428 -0.5767
11590SOL     OW36763   5.526   8.017   8.872 -0.4741 -0.9561  0.0254
11590SOL    HW136764   5.615   8.015   8.839 -0.3884 -3.6387  0.1541
11590SOL    HW236765   5.535   8.027   8.967 -0.4564  1.0563 -0.1600
11591SOL     OW36766   3.926   0.283   3.856 -0.5268  0.6522 -0.1732
11591SOL    HW136767   3.932   0.240   3.771 -0.1839 -1.1344  0.7115
11591SOL    HW236768   3.842   0.329   3.854 -1.2736 -0.6786 -0.9033
11592SOL     OW36769   8.105   5.409   2.803 -0.4532 -0.3213 -0.2546
11592SOL    HW136770   8.030   5.426   2.860 -0.1808  0.2913 -0.0662
11592SOL    HW236771   8.066   5.374   2.723 -0.8053 -1.6060  0.4548
11593SOL     OW36772   0.006   2.394   7.358 -0.6637  0.0505 -0.0355
11593SOL    HW136773   0.088   2.435   7.330 -0.6333 -0.4784 -0.7401
11593SOL    HW236774   0.022   2.369   7.450  0.8377 -2.1361 -0.7941
11594SOL     OW36775   8.467   5.031   4.455  0.8687 -0.4389  0.4147
11594SOL    HW136776   8.520   4.975   4.399  3.5764  1.5084  0.8100
11594SOL    HW236777   8.438   5.103   4.398  2.5033  0.8407  1.1268
11595SOL     OW36778   1.846   4.104   5.871  0.1547 -0.2457 -0.5083
11595SOL    HW136779   1.799   4.041   5.926  1.2798 -0.6238  0.0439
11595SOL    HW236780   1.895   4.158   5.933 -0.3662  0.8397 -1.0114
11596SOL     OW36781   2.279   0.153   6.120 -0.0594 -0.0977  0.0138
11596SOL    HW136782   2.209   0.169   6.057  0.3035  0.8807 -0.1461
11596SOL    HW236783   2.265   0.062   6.148 -1.4823  0.1226  0.1096
11597SOL     OW36784   0.117   7.393   7.570  0.0781  0.2946  0.2177
11597SOL    HW136785   0.173   7.379   7.646 -0.7701 -1.4727  0.5795
11597SOL    HW236786   0.042   7.442   7.604  0.7648  1.5424 -0.0022
11598SOL     OW36787   7.298   8.457   2.464  0.2177  0.5933  0.8285
11598SOL    HW136788   7.343   8.396   2.522 -1.0832 -0.8098  0.4202
11598SOL    HW236789   7.330   8.434   2.376  1.2789  1.9175  0.8293
11599SOL     OW36790   3.671   6.665   1.970 -0.4942 -0.1855  0.5672
11599SOL    HW136791   3.697   6.676   2.062  1.2028  0.0024  0.1097
11599SOL    HW236792   3.597   6.605   1.973  1.4870 -2.8227  1.9254
11600SOL     OW36793   3.436   2.610   7.784  0.4244 -0.3213 -0.4348
11600SOL    HW136794   3.516   2.575   7.744  2.0594  0.5163  1.8729
11600SOL    HW236795   3.415   2.547   7.854 -0.6189 -0.2374 -0.6596
11601SOL     OW36796   5.599   4.016   3.328 -0.5155 -0.1833  0.0988
11601SOL    HW136797   5.671   3.962   3.295  0.5549  0.4752  1.2959
11601SOL    HW236798   5.522   3.959   3.321  0.5268 -1.7787  1.0206
11602SOL     OW36799   8.440   1.984   4.059  0.0050  0.0051 -0.4037
11602SOL    HW136800   8.397   1.904   4.030 -1.2551  0.3221  0.4650
11602SOL    HW236801   8.372   2.051   4.052  1.4327  1.3345 -2.4735
11603SOL     OW36802   4.550   7.583   0.355 -0.1283  0.3195 -0.1367
11603SOL    HW136803   4.498   7.585   0.275  0.1681  3.0065 -0.3625
11603SOL    HW236804   4.486   7.584   0.426 -0.3973  0.7194 -0.3847
11604SOL     OW36805   6.786   6.583   7.225 -0.0842  0.2605  0.7928
11604SOL    HW136806   6.715   6.520   7.213 -0.4198  0.6665  0.5951
11604SOL    HW236807   6.861   6.530   7.252  0.7241 -0.7526 -2.8681
11605SOL     OW36808   4.658   1.416   1.687 -0.5768  0.1045 -0.2832
11605SOL    HW136809   4.683   1.390   1.776  2.9366 -0.1335 -1.1780
11605SOL    HW236810   4.667   1.336   1.636  1.6499  1.0545 -1.5213
11606SOL     OW36811   7.963   7.487   8.131 -0.0636  0.3918  0.9942
11606SOL    HW136812   7.986   7.571   8.090  1.8392 -1.2076 -1.5380
11606SOL    HW236813   8.045   7.454   8.167  0.0514 -1.8105 -1.0268
11607SOL     OW36814   8.157   0.637   7.396  0.2169  0.3231 -0.1445
11607SOL    HW136815   8.163   0.554   7.350  1.2765  0.3009  0.0135
11607SOL    HW236816   8.207   0.624   7.477  0.7298  1.2211 -0.2988
11608SOL     OW36817   6.785   0.676   4.909 -0.1163 -0.0971 -0.1277
11608SOL    HW136818   6.831   0.595   4.932  0.0510  0.4884  1.7811
11608SOL    HW236819   6.712   0.646   4.855 -0.2578 -1.5951  0.8096
11609SOL     OW36820   3.437   8.885   7.730 -0.0020  0.2165 -0.0807
11609SOL    HW136821   3.375   8.825   7.690  0.5674  0.3334 -1.1867
11609SOL    HW236822   3.393   8.918   7.808 -1.0830 -0.1564 -0.5258
11610SOL     OW36823   8.447   0.891   3.412  0.6757 -0.1677 -0.1708
11610SOL    HW136824   8.367   0.933   3.444  1.7414  1.6369  0.3336
11610SOL    HW236825   8.445   0.904   3.317 -0.8896 -2.5781 -0.5487
11611SOL     OW36826   5.897   3.634   2.559  0.3130 -0.1040  0.4924
11611SOL    HW136827   5.922   3.549   2.597  0.8832 -0.0239  0.2916
11611SOL    HW236828   5.978   3.671   2.526 -0.0513  0.1939 -0.0859
11612SOL     OW36829   3.475   2.207   7.980  0.1649  0.4303 -0.1536
11612SOL    HW136830   3.422   2.141   8.025 -0.6882  1.7197  0.8028
11612SOL    HW236831   3.555   2.212   8.032 -0.6157  1.5597  1.0364
11613SOL     OW36832   1.268   5.606   0.150 -0.2462 -0.1104 -0.1407
11613SOL    HW136833   1.231   5.667   0.214 -0.2178  0.0967 -0.3236
11613SOL    HW236834   1.339   5.654   0.109  0.5789 -0.6821  0.5734
11614SOL     OW36835   6.723   3.980   5.441 -0.0151 -0.1738 -0.5336
11614SOL    HW136836   6.748   4.043   5.509  1.8672  1.4178 -2.5501
11614SOL    HW236837   6.733   4.028   5.359 -2.1818 -2.0060 -2.0019
11615SOL     OW36838   7.568   6.216   5.989 -0.4509 -0.5474 -0.7262
11615SOL    HW136839   7.512   6.163   5.931 -1.9900 -1.8679  1.7487
11615SOL    HW236840   7.518   6.221   6.070  1.9515  0.4726  0.7733
11616SOL     OW36841   6.029   2.286   5.240  0.0798 -0.0108  0.0469
11616SOL    HW136842   6.004   2.208   5.191  1.8203 -1.4806  1.3634
11616SOL    HW236843   5.952   2.308   5.292 -0.4866 -0.7461 -0.4689
11617SOL     OW36844   8.782   1.453   8.392 -0.2824  0.2741 -0.1945
11617SOL    HW136845   8.754   1.544   8.390 -1.5438 -0.1001 -0.4285
11617SOL    HW236846   8.775   1.424   8.301 -0.9128 -0.3385  0.0384
11618SOL     OW36847   0.243   4.200   4.021  0.3398  0.1750 -0.2733
11618SOL    HW136848   0.168   4.163   4.068 -0.4296  0.9017 -0.8995
11618SOL    HW236849   0.319   4.153   4.056 -0.5187 -1.5184 -0.5496
11619SOL     OW36850   6.422   5.565   8.048 -0.6043 -0.1743 -0.3725
11619SOL    HW136851   6.379   5.561   7.963 -1.0806 -2.3094 -0.1052
11619SOL    HW236852   6.515   5.551   8.029 -0.8632 -2.0148 -0.5038
11620SOL     OW36853   0.343   4.174   5.756 -0.5794  0.2588 -0.4633
11620SOL    HW136854   0.275   4.113   5.786 -2.9580  2.7210 -0.4440
11620SOL    HW236855   0.308   4.210   5.675 -0.1915  2.9193  0.4589
11621SOL     OW36856   4.462   4.667   3.440  0.0847  0.4236  0.3707
11621SOL    HW136857   4.459   4.573   3.460  0.9984 -0.0401 -1.4301
11621SOL    HW236858   4.543   4.698   3.481  0.3075  0.1982  0.1003
11622SOL     OW36859   4.134   0.262   3.440  0.0569  0.0191 -0.2650
11622SOL    HW136860   4.067   0.236   3.503 -0.2994 -0.1725 -0.7194
11622SOL    HW236861   4.183   0.181   3.422 -0.3385 -0.0971 -0.8267
11623SOL     OW36862   3.263   6.554   0.878 -0.5380 -0.2360 -0.2852
11623SOL    HW136863   3.333   6.504   0.834 -1.9974 -0.6764 -2.2699
11623SOL    HW236864   3.205   6.580   0.807 -1.1351  2.2582  1.0081
11624SOL     OW36865   6.126   0.591   1.760  0.4900  0.5232 -0.6270
11624SOL    HW136866   6.221   0.585   1.757  0.4699  0.4226 -2.1778
11624SOL    HW236867   6.104   0.661   1.698 -0.5713 -2.1882 -3.6066
11625SOL     OW36868   8.288   7.483   1.689 -0.1932  0.3615 -0.3920
11625SOL    HW136869   8.300   7.557   1.749 -0.9462 -0.1145  0.3577
11625SOL    HW236870   8.335   7.509   1.610 -1.5228  2.2251 -0.6260
11626SOL     OW36871   6.267   8.675   2.540  0.5393  0.2298  0.0112
11626SOL    HW136872   6.306   8.686   2.627  1.6064  1.3624 -0.5856
11626SOL    HW236873   6.320   8.608   2.498 -0.8485 -1.3763  0.6872
11627SOL     OW36874   5.509   4.852   7.143 -0.1914 -0.7527 -0.3219
11627SOL    HW136875   5.508   4.838   7.238  2.9755  1.0745  0.1319
11627SOL    HW236876   5.485   4.944   7.133  1.6078 -0.3310 -1.0526
11628SOL     OW36877   3.336   3.699   0.802 -0.3594  0.3408  0.0540
11628SOL    HW136878   3.390   3.620   0.793  1.6205  1.7338 -1.0822
11628SOL    HW236879   3.400   3.770   0.807 -2.1180  2.0320 -0.6498
11629SOL     OW36880   3.555   7.879   3.309  0.1771  0.1852  0.2121
11629SOL    HW136881   3.588   7.891   3.220  0.2334 -1.5151 -0.0353
11629SOL    HW236882   3.475   7.930   3.312  0.9031  1.4135 -0.3454
11630SOL     OW36883   7.842   3.457   5.673  0.1135 -0.3516  0.8009
11630SOL    HW136884   7.815   3.371   5.641 -3.0262  0.7825  0.0494
11630SOL    HW236885   7.827   3.453   5.768 -1.1713 -0.2963  0.6122
11631SOL     OW36886   7.147   1.932   1.855 -0.4805 -0.3763  0.0574
11631SOL    HW136887   7.135   1.838   1.841  0.2393 -0.3309 -0.9843
11631SOL    HW236888   7.235   1.951   1.822 -0.3811  0.5561  0.8125
11632SOL     OW36889   3.873   2.283   4.598  0.0250  0.4105  0.8414
11632SOL    HW136890   3.803   2.334   4.556  0.1400  0.8281  1.1538
11632SOL    HW236891   3.954   2.321   4.565  0.1266 -0.7152 -0.3024
11633SOL     OW36892   1.774   6.753   0.076 -0.3194 -0.0322  0.2060
11633SOL    HW136893   1.838   6.765   0.146 -0.7477 -1.0182  0.7710
11633SOL    HW236894   1.691   6.782   0.113 -0.4984 -0.3005  0.0178
11634SOL     OW36895   8.671   2.322   7.206  0.0507  0.2633  0.3952
11634SOL    HW136896   8.601   2.346   7.266 -0.8399  2.8824 -1.4777
11634SOL    HW236897   8.752   2.351   7.249 -0.4025  0.5749  1.0363
11635SOL     OW36898   5.877   2.673   6.964 -0.0108  0.1212 -0.0665
11635SOL    HW136899   5.960   2.659   6.919 -0.4879  1.2919 -1.3911
11635SOL    HW236900   5.895   2.652   7.056  1.2339 -1.4713 -0.6255
11636SOL     OW36901   7.658   0.573   2.324  0.1008  0.1415  0.7127
11636SOL    HW136902   7.649   0.664   2.297 -2.6664 -0.7675 -1.9816
11636SOL    HW236903   7.722   0.536   2.263  0.8632  0.1025  1.5043
11637SOL     OW36904   4.821   6.484   8.661 -0.0328  0.5293 -0.2723
11637SOL    HW136905   4.807   6.562   8.714 -2.0817  0.2919 -0.3911
11637SOL    HW236906   4.851   6.517   8.576  1.0553  1.0360  0.2935
11638SOL     OW36907   1.633   2.309   6.944 -0.2064  0.1292 -0.2129
11638SOL    HW136908   1.697   2.248   6.908  1.4689  0.8546  1.3625
11638SOL    HW236909   1.644   2.389   6.893  1.3476  0.7780  1.0544
11639SOL     OW36910   6.720   6.924   2.362 -0.4167  0.1981  0.0874
11639SOL    HW136911   6.635   6.887   2.389 -0.4372 -0.3623 -0.7146
11639SOL    HW236912   6.706   6.955   2.273 -0.1343  1.3413  0.4229
11640SOL     OW36913   6.307   6.081   5.255  0.5525  0.0167 -0.2983
11640SOL    HW136914   6.259   6.164   5.256  0.2889 -0.1035 -1.6401
11640SOL    HW236915   6.303   6.050   5.346 -1.9219  0.0109 -0.3584
11641SOL     OW36916   7.856   2.520   3.490 -0.1232 -0.1224 -0.1531
11641SOL    HW136917   7.773   2.559   3.461  1.3990  2.2413 -1.6343
11641SOL    HW236918   7.862   2.544   3.582 -1.4749 -1.1348  0.2342
11642SOL     OW36919   1.733   4.238   4.746  0.0848  0.5425 -0.2035
11642SOL    HW136920   1.779   4.165   4.788  0.0470  0.3972 -0.4129
11642SOL    HW236921   1.738   4.219   4.652  1.5415  1.6668 -0.3914
11643SOL     OW36922   3.749   6.056   8.193  0.0679 -0.0331  0.0500
11643SOL    HW136923   3.664   6.013   8.207  0.0175 -0.0760 -0.3785
11643SOL    HW236924   3.743   6.138   8.243  0.1573 -0.5070  0.8588
11644SOL     OW36925   7.837   7.002   3.904  0.5470  0.4178 -0.3359
11644SOL    HW136926   7.907   7.066   3.917  2.3601 -1.4601 -0.3204
11644SOL    HW236927   7.825   6.961   3.990  1.8804 -1.6027 -1.0551
11645SOL     OW36928   1.316   1.335   3.459 -0.6812  0.2031 -0.0881
11645SOL    HW136929   1.272   1.412   3.494 -1.2201  0.1360 -0.6103
11645SOL    HW236930   1.254   1.263   3.473 -1.5489  0.3995 -2.4282
11646SOL     OW36931   7.999   8.626   2.454  0.0641 -0.2854 -0.1189
11646SOL    HW136932   7.968   8.601   2.541  0.0261  1.8771  0.5271
11646SOL    HW236933   7.985   8.720   2.449  1.4037 -0.1271 -1.9218
11647SOL     OW36934   5.179   2.488   1.501 -0.1603 -0.0843  0.0139
11647SOL    HW136935   5.183   2.461   1.593  1.1122 -0.0538 -0.0168
11647SOL    HW236936   5.153   2.409   1.454 -0.2305 -0.2561  0.3410
11648SOL     OW36937   8.782   4.273   0.635  0.5764  0.6384 -0.1359
11648SOL    HW136938   8.866   4.317   0.629  1.1296  0.0901  2.2022
11648SOL    HW236939   8.799   4.183   0.606  0.3395  0.9738 -1.3586
11649SOL     OW36940   1.414   6.751   3.311  0.5820 -0.1691 -0.3164
11649SOL    HW136941   1.494   6.788   3.274 -0.5285  1.8668 -0.8503
11649SOL    HW236942   1.400   6.799   3.393 -0.4854  0.0933 -0.6294
11650SOL     OW36943   7.255   6.513   7.858 -0.2697 -0.3914 -0.0680
11650SOL    HW136944   7.184   6.575   7.876 -0.0885  0.1533 -1.1573
11650SOL    HW236945   7.322   6.565   7.812  1.1334 -0.7378  1.4856
11651SOL     OW36946   6.768   2.017   7.181  0.3690 -0.0951 -0.3224
11651SOL    HW136947   6.697   2.080   7.194  1.2868  0.7132  0.9588
11651SOL    HW236948   6.839   2.068   7.143  0.8165 -0.5476 -0.1156
11652SOL     OW36949   3.222   4.562   3.129  0.0965  0.6220 -0.3203
11652SOL    HW136950   3.171   4.620   3.185 -2.0068  0.6728 -2.1546
11652SOL    HW236951   3.166   4.547   3.053  1.5470 -1.9031 -1.0053
11653SOL     OW36952   0.077   8.311   8.044  0.0175  0.8243  0.1801
11653SOL    HW136953   0.154   8.317   8.101  0.4611 -0.4292 -0.2480
11653SOL    HW236954   0.003   8.309   8.103  0.3884  0.8845  0.6529
11654SOL     OW36955   6.305   7.042   3.550 -0.4529 -0.1755 -0.2450
11654SOL    HW136956   6.346   6.994   3.478 -0.5349  1.1126 -1.1973
11654SOL    HW236957   6.319   6.987   3.627  1.8869 -0.4182 -0.7743
11655SOL     OW36958   4.318   6.190   6.121  0.1333 -0.0496 -0.2947
11655SOL    HW136959   4.313   6.266   6.180 -1.7978  0.6647 -1.2649
11655SOL    HW236960   4.371   6.221   6.048 -0.6364  0.4099 -0.6809
11656SOL     OW36961   1.372   2.432   0.993 -0.2452  0.0527  0.3053
11656SOL    HW136962   1.324   2.404   0.915  1.8837 -0.3062 -0.9509
11656SOL    HW236963   1.314   2.408   1.066 -2.7525  1.3012 -1.1216
11657SOL     OW36964   3.218   0.247   1.667  0.0240 -0.3186  0.9075
11657SOL    HW136965   3.263   0.269   1.585  2.5748 -0.6723  2.0956
11657SOL    HW236966   3.146   0.310   1.673  0.0173 -0.0248 -1.3695
11658SOL     OW36967   4.144   1.352   2.881 -0.9911  0.2342 -0.2923
11658SOL    HW136968   4.143   1.388   2.970 -0.3910 -0.3806 -0.0288
11658SOL    HW236969   4.227   1.381   2.844 -0.5387 -0.7843 -0.1045
11659SOL     OW36970   6.222   5.345   4.471  0.3682  0.0831  0.3270
11659SOL    HW136971   6.211   5.422   4.415 -0.2047  0.7212  1.2749
11659SOL    HW236972   6.150   5.352   4.534  0.5005 -1.0652  0.6168
11660SOL     OW36973   2.019   7.121   4.495 -0.4121 -0.7937  0.2426
11660SOL    HW136974   1.943   7.179   4.503 -0.3251 -0.5102 -0.8129
11660SOL    HW236975   2.090   7.167   4.540 -0.0521  0.4884 -1.5243
11661SOL     OW36976   1.475   7.135   8.658  0.3244 -0.2869 -0.3093
11661SOL    HW136977   1.552   7.142   8.714 -0.0509  0.5470  0.1114
11661SOL    HW236978   1.508   7.095   8.577  1.2050  0.1350 -0.1658
11662SOL     OW36979   7.517   8.771   3.780 -0.3337 -0.0877  0.1929
11662SOL    HW136980   7.527   8.750   3.873  0.2070  0.5543  0.2884
11662SOL    HW236981   7.422   8.768   3.765 -0.4980  0.7108  0.9893
11663SOL     OW36982   7.026   2.820   5.225  0.2476  0.4434  0.2699
11663SOL    HW136983   7.058   2.900   5.184  1.1112  0.9072  1.7376
11663SOL    HW236984   7.066   2.749   5.175  0.5088  0.9599 -0.2630
11664SOL     OW36985   7.152   5.746   6.905 -0.2570 -0.3503 -0.3389
11664SOL    HW136986   7.131   5.675   6.844  1.6460 -0.7982 -0.5294
11664SOL    HW236987   7.133   5.826   6.855 -3.0059 -0.6412  0.0892
11665SOL     OW36988   6.726   0.919   7.426  0.1006  0.0109 -0.0534
11665SOL    HW136989   6.700   0.918   7.333 -2.1133 -1.9411  0.4742
11665SOL    HW236990   6.757   1.008   7.441 -1.2152  0.9356 -2.2361
11666SOL     OW36991   2.522   6.782   0.296  0.4739 -0.2203  0.2839
11666SOL    HW136992   2.603   6.810   0.253 -0.0300  0.2442 -0.3757
11666SOL    HW236993   2.468   6.860   0.298  0.1881 -0.4275  1.0954
11667SOL     OW36994   3.345   2.973   6.414 -0.1896  1.0879 -0.2550
11667SOL    HW136995   3.426   2.947   6.368  0.3457  1.0379  0.6865
11667SOL    HW236996   3.349   3.068   6.417  0.2174  1.0581  0.4359
11668SOL     OW36997   3.322   5.228   4.803 -0.6604  0.5488 -0.3858
11668SOL    HW136998   3.278   5.292   4.859  0.0587  0.1379  0.6653
11668SOL    HW236999   3.375   5.175   4.863 -0.8458 -0.7117 -1.2950
11669SOL     OW37000   0.722   6.199   2.782  0.0406  0.1038 -0.2676
11669SOL    HW137001   0.690   6.109   2.775 -1.3828  0.6741 -1.9442
11669SOL    HW237002   0.646   6.248   2.815  1.5359  0.3597  3.1260
11670SOL     OW37003   5.312   0.474   4.569 -0.2368 -0.0717  0.5293
11670SOL    HW137004   5.379   0.409   4.592 -0.3958 -0.5694 -0.4019
11670SOL    HW237005   5.252   0.474   4.644  0.5145  0.0157  1.1509
11671SOL     OW37006   5.564   0.761   0.085  0.1484 -0.6980  0.0843
11671SOL    HW137007   5.530   0.831   0.141  1.6724 -0.5394  0.8653
11671SOL    HW237008   5.492   0.741   0.025 -2.3679 -2.2048  3.2701
11672SOL     OW37009   3.124   2.296   6.194  0.0447 -0.3807 -0.0201
11672SOL    HW137010   3.064   2.248   6.250 -0.6381 -0.4805 -0.8176
11672SOL    HW237011   3.148   2.234   6.125 -0.2160  0.1551 -0.6063
11673SOL     OW37012   8.109   3.824   1.039  0.0129 -0.2228  0.1848
11673SOL    HW137013   8.058   3.765   0.984  1.1041 -0.7333 -0.3012
11673SOL    HW237014   8.191   3.778   1.054  1.0740  1.3303 -0.5596
11674SOL     OW37015   1.336   2.233   5.955 -0.6403 -0.3147 -0.1474
11674SOL    HW137016   1.291   2.237   6.039  0.3184  0.6876  0.3515
11674SOL    HW237017   1.415   2.285   5.968  0.3633 -1.5133 -1.1776
11675SOL     OW37018   3.214   4.548   3.816 -0.4362 -0.1337  0.5563
11675SOL    HW137019   3.244   4.625   3.864  0.3617  0.5044 -0.8882
11675SOL    HW237020   3.185   4.487   3.883  1.0212  0.5403  1.8584
11676SOL     OW37021   3.882   4.221   4.331  0.0204  0.0897  0.2408
11676SOL    HW137022   3.830   4.204   4.410 -1.1617 -1.1598 -0.7640
11676SOL    HW237023   3.972   4.202   4.357 -0.3853 -0.5684  1.2338
11677SOL     OW37024   2.667   2.771   6.273 -0.1055 -0.3058 -0.2319
11677SOL    HW137025   2.614   2.817   6.338 -0.6529  1.8958 -2.1029
11677SOL    HW237026   2.611   2.700   6.242 -0.2943 -0.6259  0.8159
11678SOL     OW37027   7.992   7.469   3.144 -0.0838  0.1555 -0.1268
11678SOL    HW137028   7.967   7.545   3.092 -1.5709  0.2681  0.7015
11678SOL    HW237029   7.976   7.495   3.235 -0.1829 -0.9935  0.1999
11679SOL     OW37030   7.573   0.250   8.456  0.1543  0.4394 -0.1927
11679SOL    HW137031   7.491   0.298   8.440  0.0668  0.4579  0.3106
11679SOL    HW237032   7.550   0.159   8.439 -0.3396  0.2672  1.2491
11680SOL     OW37033   8.607   7.839   1.714 -0.7761  0.1924 -0.3683
11680SOL    HW137034   8.662   7.828   1.637 -0.0723  0.0700  0.1389
11680SOL    HW237035   8.602   7.934   1.727  1.9413  0.2041  1.3766
11681SOL     OW37036   5.348   0.168   7.229  0.4216  0.0026  0.5453
11681SOL    HW137037   5.375   0.242   7.174 -1.4570  1.1395  1.0717
11681SOL    HW237038   5.297   0.208   7.299 -1.3501 -1.8661  0.3897
11682SOL     OW37039   6.191   0.514   1.094  0.6175  0.0299  0.7375
11682SOL    HW137040   6.219   0.599   1.127  2.5901 -0.4167  0.3853
11682SOL    HW237041   6.211   0.453   1.166 -3.3908  0.1184  2.1384
11683SOL     OW37042   5.238   5.142   7.070  0.1613  0.1604 -0.2268
11683SOL    HW137043   5.256   5.143   6.976  2.7206  0.1344  0.1868
11683SOL    HW237044   5.316   5.180   7.110 -1.2690  1.1245  1.8670
11684SOL     OW37045   4.271   7.519   7.198 -0.2819  0.1258 -0.8426
11684SOL    HW137046   4.254   7.504   7.105 -3.0496 -0.3139 -0.3717
11684SOL    HW237047   4.286   7.432   7.234  1.7676  0.3772 -0.9692
11685SOL     OW37048   5.104   1.433   4.114 -0.0153  0.2109 -0.6664
11685SOL    HW137049   5.154   1.358   4.146  1.4015  0.7012 -1.6204
11685SOL    HW237050   5.034   1.444   4.178 -0.0878 -1.7174 -0.3338
11686SOL     OW37051   7.888   0.749   8.285  0.4539  0.2420  0.1723
11686SOL    HW137052   7.846   0.680   8.335 -0.0810  0.0564 -0.5059
11686SOL    HW237053   7.856   0.830   8.324 -1.2657  0.1172 -0.8648
11687SOL     OW37054   4.489   4.424   6.274 -0.6248  0.0409  0.4239
11687SOL    HW137055   4.467   4.342   6.230  2.4687  0.1930 -1.6895
11687SOL    HW237056   4.446   4.492   6.222  0.0329 -0.0085 -0.1900
11688SOL     OW37057   4.272   5.004   1.563  0.3549  0.2873 -0.4914
11688SOL    HW137058   4.176   5.007   1.562  0.3539  0.9503 -1.9768
11688SOL    HW237059   4.297   5.041   1.647 -0.6790  1.7711 -0.7987
11689SOL     OW37060   4.519   4.754   8.646  0.1500 -0.1175  0.2224
11689SOL    HW137061   4.586   4.708   8.697  0.5273  0.1907  0.0061
11689SOL    HW237062   4.550   4.750   8.556  0.1998  0.5867  0.2033
11690SOL     OW37063   4.996   1.313   7.951  0.4575  0.2829  0.1547
11690SOL    HW137064   4.960   1.393   7.915 -1.9918 -1.5273 -1.7915
11690SOL    HW237065   5.059   1.283   7.886 -0.5161 -0.6031 -0.4201
11691SOL     OW37066   6.452   2.432   1.247  0.2265 -0.3536 -0.0589
11691SOL    HW137067   6.369   2.399   1.281  0.5085 -0.8065  0.1966
11691SOL    HW237068   6.427   2.500   1.185 -0.3111  0.4471  0.9860
11692SOL     OW37069   1.205   4.147   8.714 -0.2244 -0.2261 -0.6172
11692SOL    HW137070   1.175   4.235   8.736 -0.7754 -0.2806 -1.1413
11692SOL    HW237071   1.196   4.097   8.795  2.2807  0.7501  0.3699
11693SOL     OW37072   3.458   8.728   3.741  0.3576  0.1590 -0.0848
11693SOL    HW137073   3.367   8.748   3.762  0.6392  1.1953  0.2147
11693SOL    HW237074   3.483   8.659   3.802 -0.2101 -0.0783 -0.1240
11694SOL     OW37075   1.565   1.275   0.834 -0.1815 -0.1403 -0.4349
11694SOL    HW137076   1.528   1.347   0.885  0.6673  0.0280 -0.0255
11694SOL    HW237077   1.514   1.274   0.753  0.4408  1.6183 -0.9050
11695SOL     OW37078   2.336   1.923   7.706  0.0417 -0.1393 -0.0266
11695SOL    HW137079   2.366   1.886   7.623  0.6752  0.4862 -0.0853
11695SOL    HW237080   2.406   1.982   7.733  0.7183 -1.7328  1.9098
11696SOL     OW37081   1.222   5.722   8.146  0.0550 -0.0658 -0.2103
11696SOL    HW137082   1.130   5.719   8.173  0.2235 -1.3977  0.2549
11696SOL    HW237083   1.227   5.798   8.088 -0.8604  1.3830  1.5146
11697SOL     OW37084   0.588   1.648   3.714  0.5702  0.2701  0.3965
11697SOL    HW137085   0.610   1.616   3.627 -1.9619 -1.7537  0.3972
11697SOL    HW237086   0.659   1.617   3.770  1.1693 -0.2022 -0.6048
11698SOL     OW37087   7.211   3.860   3.464 -0.5624 -0.3187 -0.3714
11698SOL    HW137088   7.148   3.840   3.534  1.4861 -2.4477  1.0086
11698SOL    HW237089   7.278   3.914   3.506  0.7551 -1.7114 -0.5893
11699SOL     OW37090   8.439   1.904   1.569  0.3906  0.1770 -0.1000
11699SOL    HW137091   8.463   1.996   1.579  2.4339 -0.3736  0.7218
11699SOL    HW237092   8.478   1.877   1.486 -0.5746  0.1536 -0.5512
11700SOL     OW37093   6.399   3.332   5.551 -0.1618 -0.2347  0.0776
11700SOL    HW137094   6.485   3.345   5.510 -0.0485 -2.9260 -0.6891
11700SOL    HW237095   6.348   3.408   5.524  1.3964  0.4615 -1.0356
11701SOL     OW37096   1.852   3.150   2.997  0.1598 -0.3545  0.4171
11701SOL    HW137097   1.877   3.058   2.987  0.4592 -0.2005 -0.3147
11701SOL    HW237098   1.885   3.192   2.918 -1.9071 -0.0408 -0.3453
11702SOL     OW37099   0.808   3.965   0.414 -0.2077  0.3626 -0.3606
11702SOL    HW137100   0.782   4.024   0.485 -1.2319 -2.6435  2.0099
11702SOL    HW237101   0.799   3.878   0.452  0.7397 -1.3824 -3.7747
11703SOL     OW37102   5.743   7.054   6.866 -0.3624  0.6079  0.9161
11703SOL    HW137103   5.783   7.085   6.784 -1.0849 -0.3257  0.1843
11703SOL    HW237104   5.818   7.024   6.918 -0.0538 -2.4857 -1.0111
11704SOL     OW37105   4.089   3.178   5.840 -0.0472 -0.0500  0.0717
11704SOL    HW137106   4.117   3.127   5.765  0.2375  1.1841 -0.6776
11704SOL    HW237107   4.168   3.190   5.893  0.1046  0.4964 -0.2803
11705SOL     OW37108   3.357   5.209   5.386  0.7950 -0.4832  0.0335
11705SOL    HW137109   3.369   5.303   5.381 -1.0666 -0.2541 -1.0006
11705SOL    HW237110   3.406   5.182   5.464  0.1742  1.5392  1.1898
11706SOL     OW37111   3.488   3.535   1.181 -0.1848 -0.2837 -0.0400
11706SOL    HW137112   3.505   3.630   1.185 -1.9038  0.0172  0.8678
11706SOL    HW237113   3.539   3.506   1.106  0.1498  1.4222 -0.5327
11707SOL     OW37114   1.431   4.550   1.560  0.1128  0.0814 -0.1030
11707SOL    HW137115   1.526   4.549   1.569  0.2000 -2.1006 -0.7558
11707SOL    HW237116   1.406   4.458   1.558 -2.0384  0.6046  0.1035
11708SOL     OW37117   8.006   8.299   5.921  0.3747  0.0291 -0.4425
11708SOL    HW137118   8.074   8.242   5.884 -0.5600 -0.9521 -0.7058
11708SOL    HW237119   7.924   8.267   5.882 -0.3202  0.7179  0.4118
11709SOL     OW37120   8.275   1.647   8.697  0.4520  0.1841 -0.1598
11709SOL    HW137121   8.253   1.683   8.784 -0.6573  0.5456 -0.5695
11709SOL    HW237122   8.343   1.705   8.664  2.1215 -0.9375  1.1359
11710SOL     OW37123   2.963   5.768   6.646  0.5197  0.3112  0.1093
11710SOL    HW137124   2.933   5.783   6.557 -0.4076  0.1257  0.3750
11710SOL    HW237125   2.932   5.845   6.695  1.2669  0.5487  0.2162
11711SOL     OW37126   0.646   8.246   7.169 -0.3575 -1.0625  0.1620
11711SOL    HW137127   0.645   8.158   7.130 -0.2121 -1.2439  0.5659
11711SOL    HW237128   0.600   8.300   7.105  0.6902 -1.1686 -0.7199
11712SOL     OW37129   3.029   6.681   1.905  0.5945  0.1189 -0.2501
11712SOL    HW137130   3.025   6.590   1.935  0.1060  0.4978  0.8534
11712SOL    HW237131   3.111   6.685   1.855  1.0758 -0.7105  0.4367
11713SOL     OW37132   0.599   3.381   7.325  0.2411 -0.0626 -0.1901
11713SOL    HW137133   0.647   3.332   7.391 -0.2026  0.1051  0.2626
11713SOL    HW237134   0.517   3.333   7.315 -1.0537  1.6111  1.6643
11714SOL     OW37135   3.112   1.180   7.724  0.2366  0.0908 -0.0001
11714SOL    HW137136   3.146   1.154   7.638 -0.1587  0.9079 -0.4231
11714SOL    HW237137   3.151   1.118   7.785 -0.8761 -1.6475 -0.9728
11715SOL     OW37138   8.724   8.397   1.355 -0.3128  0.3355  0.2177
11715SOL    HW137139   8.780   8.472   1.377  1.4980 -0.6565 -0.7881
11715SOL    HW237140   8.709   8.406   1.261 -1.6159  0.4040  0.4183
11716SOL     OW37141   8.774   5.977   0.749 -0.2397 -0.4848  0.3696
11716SOL    HW137142   8.864   6.009   0.741 -0.5451  0.3633  0.2573
11716SOL    HW237143   8.719   6.054   0.734 -0.9823 -0.8887  0.9352
11717SOL     OW37144   0.214   2.285   5.606  0.1566  0.4425  0.1931
11717SOL    HW137145   0.256   2.276   5.521 -2.0627  0.1835 -0.9498
11717SOL    HW237146   0.151   2.213   5.610 -1.7804  2.0454  0.7698
11718SOL     OW37147   0.355   6.273   4.844 -0.3539 -0.4453 -0.5303
11718SOL    HW137148   0.290   6.270   4.774 -1.6678  0.2189  0.6048
11718SOL    HW237149   0.306   6.246   4.923  0.6080  0.5862  0.4526
11719SOL     OW37150   6.108   5.899   4.613 -0.0613  0.6312 -0.1692
11719SOL    HW137151   6.022   5.902   4.655 -0.1614 -0.7634 -0.2206
11719SOL    HW237152   6.089   5.887   4.520  0.1646 -0.9347 -0.0398
11720SOL     OW37153   6.198   7.280   5.155 -0.0051  0.1235 -1.1413
11720SOL    HW137154   6.250   7.245   5.228  0.5884 -0.3522 -1.7788
11720SOL    HW237155   6.125   7.218   5.147  0.1059 -0.0068 -1.1582
11721SOL     OW37156   2.526   0.915   7.311 -0.4736  0.3532  0.1104
11721SOL    HW137157   2.559   0.991   7.263  1.7339 -0.2065  0.6067
11721SOL    HW237158   2.492   0.951   7.393  0.7935  0.8143  0.4519
11722SOL     OW37159   6.321   0.181   1.411 -0.0864  0.5220 -0.1405
11722SOL    HW137160   6.371   0.161   1.331 -1.8857  0.2977 -1.2503
11722SOL    HW237161   6.322   0.276   1.417 -0.9187  0.6091 -1.1115
11723SOL     OW37162   1.186   3.307   0.562 -0.0930 -0.3327 -0.3252
11723SOL    HW137163   1.227   3.308   0.649  0.6538  1.5734 -0.6636
11723SOL    HW237164   1.102   3.351   0.575  0.2373  0.4060 -0.6495
11724SOL     OW37165   5.378   3.963   7.094 -0.4168  0.5615  0.2389
11724SOL    HW137166   5.289   3.932   7.110 -0.1409 -1.1571 -1.2198
11724SOL    HW237167   5.381   3.979   7.000  1.2025 -0.8387  0.0044
11725SOL     OW37168   3.672   7.578   2.236  0.6306 -0.2772  0.3853
11725SOL    HW137169   3.675   7.673   2.246 -0.5114 -0.0092 -1.4177
11725SOL    HW237170   3.763   7.550   2.248  1.6835  1.4634 -2.4273
11726SOL     OW37171   0.791   7.605   6.489 -0.4103 -0.1894  0.2295
11726SOL    HW137172   0.724   7.670   6.471 -0.4698  0.0312  1.1726
11726SOL    HW237173   0.752   7.522   6.462 -0.0398  0.2186 -1.7095
11727SOL     OW37174   6.420   5.942   6.795 -0.0094  0.2275 -0.4101
11727SOL    HW137175   6.444   6.012   6.735  0.9664 -0.5056 -0.8954
11727SOL    HW237176   6.441   5.861   6.748  2.2867 -0.3772  1.4709
11728SOL     OW37177   6.125   5.767   4.378  0.3445 -0.2548 -0.6162
11728SOL    HW137178   6.204   5.712   4.377  0.6790  0.1949  0.2408
11728SOL    HW237179   6.136   5.825   4.303  1.9973  1.3834  0.8061
11729SOL     OW37180   3.468   7.987   2.647  0.1219 -0.8314  0.3387
11729SOL    HW137181   3.449   7.894   2.632 -1.1391 -0.4855 -0.2737
11729SOL    HW237182   3.547   8.003   2.595  0.3470 -1.5539  0.4437
11730SOL     OW37183   0.903   5.390   8.553  0.1443  0.2513 -0.7012
11730SOL    HW137184   0.855   5.309   8.567 -1.4755  1.5502  1.8964
11730SOL    HW237185   0.836   5.456   8.536  1.3082  1.3857 -1.0831
11731SOL     OW37186   7.649   7.003   1.264  0.1934  0.4749  0.0634
11731SOL    HW137187   7.572   6.950   1.242 -0.7719  1.9331 -0.2628
11731SOL    HW237188   7.630   7.037   1.352  1.7996 -1.4072  1.2021
11732SOL     OW37189   5.123   3.909   5.399  0.1583 -0.1273  0.1389
11732SOL    HW137190   5.172   3.830   5.424 -0.5313 -0.2696  1.1060
11732SOL    HW237191   5.164   3.938   5.318  0.6727 -1.2707 -0.0309
11733SOL     OW37192   8.481   6.309   5.855  0.1154 -0.1513  0.1482
11733SOL    HW137193   8.517   6.221   5.844 -0.5699 -0.4410  0.1605
11733SOL    HW237194   8.497   6.353   5.772  1.9182  0.2638  0.6816
11734SOL     OW37195   3.627   5.786   8.788  0.3667  0.6114 -0.3959
11734SOL    HW137196   3.679   5.711   8.817  2.8602  1.8635 -1.2795
11734SOL    HW237197   3.561   5.798   8.856  0.7680 -1.5440  0.4282
11735SOL     OW37198   8.676   2.707   4.575  0.4229  0.7009 -0.7323
11735SOL    HW137199   8.646   2.636   4.517  0.9176  1.7430 -2.3239
11735SOL    HW237200   8.771   2.706   4.566  0.3829  2.1700 -1.5432
11736SOL     OW37201   1.709   3.654   1.846 -0.3949 -0.0966  0.3674
11736SOL    HW137202   1.732   3.671   1.937  0.1028  0.7571  0.0978
11736SOL    HW237203   1.636   3.713   1.829  0.4726  0.8439 -0.1996
11737SOL     OW37204   5.394   4.924   6.250  0.6329 -0.4052  0.6172
11737SOL    HW137205   5.360   4.973   6.175  0.5578  1.4107  1.7583
11737SOL    HW237206   5.316   4.900   6.300  0.7666  0.3400  1.2154
11738SOL     OW37207   8.287   7.994   2.746  0.2359 -0.0682 -0.3057
11738SOL    HW137208   8.276   8.085   2.717  0.6887 -0.8022 -3.0455
11738SOL    HW237209   8.231   7.987   2.823 -1.5352  1.9871 -1.2881
11739SOL     OW37210   5.054   6.791   2.474  0.1864  0.1610 -0.5876
11739SOL    HW137211   5.117   6.719   2.465 -0.0047 -0.3098  1.4109
11739SOL    HW237212   5.108   6.870   2.479  0.3759  0.3314 -3.4920
11740SOL     OW37213   7.754   0.153   7.293  0.1194 -0.1766 -0.2190
11740SOL    HW137214   7.691   0.212   7.334 -0.2602 -1.1479  0.6359
11740SOL    HW237215   7.800   0.113   7.366 -0.7337 -2.1254 -0.6932
11741SOL     OW37216   7.238   8.644   7.814 -0.4514 -0.4104  0.0134
11741SOL    HW137217   7.252   8.574   7.749 -2.5477 -1.7186  0.8681
11741SOL    HW237218   7.170   8.699   7.775 -1.2396 -0.8177  0.7898
11742SOL     OW37219   3.724   7.323   4.158 -0.6988 -0.1129  0.7294
11742SOL    HW137220   3.674   7.334   4.077 -1.7666 -1.8055  1.1108
11742SOL    HW237221   3.808   7.365   4.140 -1.4159  0.7752 -0.7520
11743SOL     OW37222   0.638   5.979   8.119 -0.0074  0.4288 -0.0055
11743SOL    HW137223   0.613   5.899   8.165  0.0273 -1.1909 -2.6094
11743SOL    HW237224   0.566   6.040   8.135 -0.8082 -0.6805  0.7381
11744SOL     OW37225   0.739   2.466   7.201 -0.7525  0.0608 -0.6254
11744SOL    HW137226   0.797   2.435   7.271  0.3904  0.3881 -1.3900
11744SOL    HW237227   0.758   2.560   7.195 -1.2032  0.1266 -1.0474
11745SOL     OW37228   3.638   4.067   4.271  0.0497 -0.2460  0.6654
11745SOL    HW137229   3.700   4.132   4.239 -0.6861  0.6148  0.9447
11745SOL    HW237230   3.690   3.989   4.286  0.5377 -0.5969 -2.2288
11746SOL     OW37231   1.795   5.312   7.876 -0.3292 -0.1398 -0.2542
11746SOL    HW137232   1.878   5.291   7.833 -0.2201  0.4466 -0.3365
11746SOL    HW237233   1.728   5.276   7.818 -0.1111 -2.1045  0.6292
11747SOL     OW37234   2.023   4.242   6.050 -0.0612 -0.2224  0.6571
11747SOL    HW137235   1.988   4.216   6.135 -0.8003  0.4732  0.5770
11747SOL    HW237236   2.004   4.335   6.044 -2.0379 -0.6622 -1.1996
11748SOL     OW37237   5.866   8.079   0.680  0.5077  0.4191  0.2717
11748SOL    HW137238   5.866   8.175   0.679  0.7028  0.4168  0.1000
11748SOL    HW237239   5.910   8.056   0.761  0.8188  0.4729  0.1188
11749SOL     OW37240   3.571   4.358   2.914  0.1656 -0.5075 -0.0521
11749SOL    HW137241   3.535   4.344   2.826 -0.9766  1.5911  0.0240
11749SOL    HW237242   3.517   4.304   2.971  0.3716 -1.2289 -0.5174
11750SOL     OW37243   4.781   4.960   8.105 -0.2361 -0.0958  0.4465
11750SOL    HW137244   4.769   4.871   8.071  2.2220  0.0481 -0.9876
11750SOL    HW237245   4.754   4.953   8.197 -0.7200 -2.1578  0.2121
11751SOL     OW37246   3.030   3.339   5.028 -0.8733 -0.4221 -0.5981
11751SOL    HW137247   2.969   3.371   4.962 -0.9391  0.1210 -0.2794
11751SOL    HW237248   3.098   3.293   4.978 -1.4454 -0.8841 -0.9637
11752SOL     OW37249   8.349   7.047   2.927  0.5182 -0.6725 -0.7544
11752SOL    HW137250   8.359   7.101   3.006  0.5269 -0.0613 -1.1634
11752SOL    HW237251   8.285   7.094   2.874  0.5181 -1.0756 -1.1168
11753SOL     OW37252   0.762   7.581   8.498  0.3965  0.2765  0.4588
11753SOL    HW137253   0.670   7.581   8.524 -0.0639 -1.4885 -0.9448
11753SOL    HW237254   0.808   7.540   8.571  0.0232  0.7380  0.9617
11754SOL     OW37255   5.415   0.813   8.755 -0.0402 -0.9672  0.4550
11754SOL    HW137256   5.464   0.851   8.683  0.3345 -1.2320  0.5653
11754SOL    HW237257   5.326   0.802   8.720  0.4710 -2.4728 -0.4902
11755SOL     OW37258   5.813   0.592   7.210 -0.4849  0.2525  0.1823
11755SOL    HW137259   5.860   0.633   7.282  1.4690 -0.4016 -0.6611
11755SOL    HW237260   5.759   0.525   7.252  0.1818  0.2697  1.1018
11756SOL     OW37261   0.247   2.434   3.598 -0.2896 -0.1624  0.4083
11756SOL    HW137262   0.277   2.379   3.670 -0.2562  1.0913  1.3870
11756SOL    HW237263   0.152   2.437   3.608 -0.0970  2.5431  2.3887
11757SOL     OW37264   3.231   3.151   0.152 -0.0997  0.3902 -0.4994
11757SOL    HW137265   3.307   3.209   0.151 -0.0615  0.3820 -2.5608
11757SOL    HW237266   3.158   3.206   0.121 -0.9175  0.3381  1.2291
11758SOL     OW37267   8.849   3.187   6.198  0.2451 -0.2626  0.2324
11758SOL    HW137268   8.778   3.148   6.147  0.4415  0.1032 -0.3385
11758SOL    HW237269   8.848   3.140   6.281  1.0035 -2.0611 -0.7204
11759SOL     OW37270   0.122   2.918   8.755 -0.2221  0.4184  0.0649
11759SOL    HW137271   0.033   2.941   8.784 -1.2207 -1.9868 -0.8584
11759SOL    HW237272   0.156   2.862   8.825 -0.3246 -0.4969 -0.6050
11760SOL     OW37273   1.723   8.519   0.251 -0.5383  0.0208  0.7742
11760SOL    HW137274   1.658   8.494   0.317 -0.4593  0.1406  0.8981
11760SOL    HW237275   1.807   8.514   0.297 -0.2813 -1.7126  0.1825
11761SOL     OW37276   0.692   0.612   1.158  0.4364 -0.2598 -0.6728
11761SOL    HW137277   0.741   0.540   1.196  0.4416 -0.7495 -1.5862
11761SOL    HW237278   0.758   0.677   1.134  0.3614  0.4883  1.0056
11762SOL     OW37279   2.052   7.572   0.415 -0.3178 -0.1116 -0.4544
11762SOL    HW137280   2.018   7.495   0.369 -0.4492 -0.0095 -0.5271
11762SOL    HW237281   2.147   7.556   0.420 -0.1457  0.4152 -1.7718
11763SOL     OW37282   8.266   4.886   1.018  0.2912 -0.1494 -0.3463
11763SOL    HW137283   8.286   4.863   1.108  0.5556 -0.4876 -0.4853
11763SOL    HW237284   8.322   4.828   0.966 -0.8078 -0.8933 -0.7530
11764SOL     OW37285   2.505   7.976   1.244  0.0086 -0.0134  0.2858
11764SOL    HW137286   2.531   8.064   1.218 -2.3234  1.2143  1.7757
11764SOL    HW237287   2.419   7.964   1.204 -0.5020 -0.8668  1.5719
11765SOL     OW37288   4.337   7.195   7.699  0.5825 -0.1876 -0.7800
11765SOL    HW137289   4.373   7.244   7.773  0.5769  0.0533 -0.9355
11765SOL    HW237290   4.243   7.197   7.713  0.6607 -1.6282  0.1393
11766SOL     OW37291   2.929   3.721   4.625  0.1551  0.0567 -0.3147
11766SOL    HW137292   3.023   3.706   4.635  0.2083  0.7373  0.3397
11766SOL    HW237293   2.915   3.727   4.531  1.2823  2.8639 -0.4202
11767SOL     OW37294   4.469   4.042   4.913 -0.4606  0.1006  0.2908
11767SOL    HW137295   4.445   3.974   4.851 -0.6915  2.1184 -1.9834
11767SOL    HW237296   4.554   4.015   4.947 -0.4207 -1.1764 -0.7739
11768SOL     OW37297   6.161   4.715   4.503 -0.2668 -1.0732  0.3433
11768SOL    HW137298   6.255   4.695   4.495  0.0039  0.7610 -2.6626
11768SOL    HW237299   6.118   4.643   4.458 -0.1680 -1.0719  0.2442
11769SOL     OW37300   0.047   6.918   6.388 -0.2276  0.4847 -0.1747
11769SOL    HW137301   0.066   6.864   6.465  0.7021 -0.8360 -1.2844
11769SOL    HW237302   0.053   6.857   6.315  2.5957  2.3716 -1.6837
11770SOL     OW37303   3.243   4.648   8.470 -0.1255 -0.3541 -0.3217
11770SOL    HW137304   3.181   4.713   8.505  0.2787 -0.2587  0.2313
11770SOL    HW237305   3.188   4.574   8.443 -0.3164 -1.3811  2.5710
11771SOL     OW37306   4.440   8.506   0.166  0.1973  0.4229 -0.0248
11771SOL    HW137307   4.389   8.427   0.185 -0.3119  0.9488  0.8734
11771SOL    HW237308   4.498   8.480   0.094  0.8809 -1.1195  1.0085
11772SOL     OW37309   6.536   4.682   8.315  0.1280 -0.2496  0.2276
11772SOL    HW137310   6.614   4.734   8.294 -0.3515  0.0472 -0.8766
11772SOL    HW237311   6.531   4.618   8.244  0.5965 -1.7146  1.4540
11773SOL     OW37312   3.235   3.902   6.890  0.3729  0.2060 -0.3543
11773SOL    HW137313   3.302   3.841   6.860 -1.3109 -0.9477 -2.0222
11773SOL    HW237314   3.254   3.983   6.844  0.2232 -0.3323 -1.3878
11774SOL     OW37315   5.766   2.993   6.125 -0.0513 -0.1640  0.1218
11774SOL    HW137316   5.784   3.020   6.215  0.6160 -0.5638  0.1082
11774SOL    HW237317   5.815   3.055   6.071  0.6178 -0.7421  0.0649
11775SOL     OW37318   5.820   8.780   7.157 -0.5711 -0.0776  0.6482
11775SOL    HW137319   5.775   8.864   7.164 -1.6516 -0.4918 -0.6803
11775SOL    HW237320   5.751   8.715   7.174 -0.5417 -0.7365 -1.4533
11776SOL     OW37321   8.449   1.261   8.082 -0.4303  0.1812  0.5496
11776SOL    HW137322   8.361   1.266   8.045  0.1053 -2.2208 -1.2823
11776SOL    HW237323   8.504   1.231   8.010  1.1491 -2.3463  2.6202
11777SOL     OW37324   2.063   4.919   5.413 -0.9493 -0.4569  0.6828
11777SOL    HW137325   2.088   4.996   5.464 -1.7294 -0.3586  0.9293
11777SOL    HW237326   2.070   4.947   5.322 -2.4962  0.3430  0.7749
11778SOL     OW37327   6.728   5.248   6.737  0.2186  0.0359  0.3081
11778SOL    HW137328   6.822   5.236   6.726  0.0389  0.3542 -2.0993
11778SOL    HW237329   6.698   5.167   6.780  1.5772  0.0071  1.2661
11779SOL     OW37330   0.485   6.998   5.088 -0.1510 -0.0882  0.4096
11779SOL    HW137331   0.401   6.957   5.108 -0.8354  1.7884  1.5804
11779SOL    HW237332   0.547   6.954   5.147 -0.6714 -0.1627  0.9065
11780SOL     OW37333   5.618   3.417   1.182 -0.3683 -0.3906  0.2076
11780SOL    HW137334   5.630   3.380   1.094 -2.2818 -0.7324  0.0386
11780SOL    HW237335   5.603   3.511   1.166  1.0635 -0.1112  0.3530
11781SOL     OW37336   1.662   4.814   8.788  0.9233  0.0880  0.5896
11781SOL    HW137337   1.682   4.794   8.879  1.5776  4.4128  1.6044
11781SOL    HW237338   1.568   4.800   8.780  0.7942  0.0003  2.0398
11782SOL     OW37339   6.654   6.159   4.924 -0.1377 -0.5107 -0.4447
11782SOL    HW137340   6.658   6.151   4.829 -0.8954  1.4365 -0.6773
11782SOL    HW237341   6.702   6.082   4.957  1.1519 -0.5935 -2.3830
11783SOL     OW37342   0.445   7.564   1.812  0.6911 -0.5561 -0.3825
11783SOL    HW137343   0.509   7.515   1.864  0.0187 -1.1654 -0.1077
11783SOL    HW237344   0.494   7.637   1.776  1.0213  0.3788  1.7700
11784SOL     OW37345   7.410   4.247   1.110  0.7395 -0.4341 -0.0660
11784SOL    HW137346   7.376   4.330   1.075  1.3768 -0.2331 -0.2230
11784SOL    HW237347   7.462   4.273   1.186  0.5121 -0.7409  0.1950
11785SOL     OW37348   3.355   0.733   4.302  0.2095  0.5883 -0.8455
11785SOL    HW137349   3.325   0.761   4.215  0.2935 -0.5823 -1.2587
11785SOL    HW237350   3.443   0.699   4.288 -0.1777 -0.6079 -0.5015
11786SOL     OW37351   4.353   3.038   2.913 -0.4157  0.0655 -0.3113
11786SOL    HW137352   4.300   3.113   2.885 -0.8791 -0.7220 -1.6102
11786SOL    HW237353   4.407   3.017   2.837 -1.7394 -2.1657 -0.7099
11787SOL     OW37354   4.494   0.273   5.373  0.6240 -0.1386 -0.2631
11787SOL    HW137355   4.528   0.232   5.453  2.7284 -1.2254 -1.6111
11787SOL    HW237356   4.415   0.224   5.352  1.0528 -1.0559  0.2055
11788SOL     OW37357   6.270   4.798   8.712 -0.2532 -0.0869  0.1971
11788SOL    HW137358   6.327   4.739   8.761 -0.2439  0.3571  0.7333
11788SOL    HW237359   6.297   4.789   8.621 -0.1430 -0.7834  0.2982
11789SOL     OW37360   4.781   1.496   4.992 -0.5776  0.1841  0.1325
11789SOL    HW137361   4.738   1.475   4.909 -0.7816  0.1405  0.2492
11789SOL    HW237362   4.872   1.510   4.968 -0.6219  0.1036 -0.0906
11790SOL     OW37363   8.249   3.223   7.713  0.3418 -0.3557 -0.1762
11790SOL    HW137364   8.236   3.149   7.653  0.7231 -1.8083  1.4549
11790SOL    HW237365   8.187   3.207   7.784 -0.0609  1.3076 -0.1182
11791SOL     OW37366   1.187   0.522   2.046 -0.4835  0.0691  0.7098
11791SOL    HW137367   1.130   0.567   2.109  0.9942  0.1883  2.0037
11791SOL    HW237368   1.233   0.593   2.000 -0.9975 -0.0424 -0.0061
11792SOL     OW37369   0.885   4.241   8.236 -0.1944 -0.3065 -0.6212
11792SOL    HW137370   0.926   4.316   8.278 -3.2330  0.8084  0.6575
11792SOL    HW237371   0.855   4.273   8.151 -1.2266 -0.0914 -0.1985
11793SOL     OW37372   6.063   4.292   3.927  0.1789  0.0273 -0.4711
11793SOL    HW137373   6.158   4.302   3.920  0.4772 -2.4789 -0.9872
11793SOL    HW237374   6.043   4.323   4.015  1.9424 -1.8562  0.6933
11794SOL     OW37375   5.323   0.825   5.536 -0.0716 -0.2925  0.0951
11794SOL    HW137376   5.416   0.812   5.518 -0.0194 -0.3082  0.3756
11794SOL    HW237377   5.296   0.892   5.474  0.1935 -0.0763  0.2129
11795SOL     OW37378   5.347   6.763   7.380  0.3649  0.2401 -0.2088
11795SOL    HW137379   5.348   6.769   7.285 -2.2932  2.1804 -0.2267
11795SOL    HW237380   5.404   6.834   7.410  1.4559 -0.5697 -0.3015
11796SOL     OW37381   3.458   3.673   7.467  0.4246  0.0524 -0.3732
11796SOL    HW137382   3.525   3.722   7.420  1.0339 -1.2806 -0.9494
11796SOL    HW237383   3.499   3.587   7.484 -0.8253 -0.4845  0.0273
11797SOL     OW37384   6.233   5.075   4.498  0.1680  0.2362  0.6029
11797SOL    HW137385   6.222   5.165   4.468  0.2166 -0.6364 -2.3992
11797SOL    HW237386   6.327   5.061   4.497  0.0823 -0.6267 -1.8598
11798SOL     OW37387   0.444   4.086   0.519 -0.7131  0.1222  0.0745
11798SOL    HW137388   0.407   4.013   0.469 -0.5066  0.0585  0.0103
11798SOL    HW237389   0.452   4.157   0.455  0.3222 -0.2170 -0.2010
11799SOL     OW37390   6.262   8.366   7.863 -0.2155 -0.5485  0.8871
11799SOL    HW137391   6.191   8.418   7.824 -0.2602 -0.6335  0.8565
11799SOL    HW237392   6.295   8.421   7.935 -0.2777 -0.4869  0.8687
11800SOL     OW37393   8.040   1.903   4.253 -0.2814  0.0684  0.1767
11800SOL    HW137394   8.003   1.936   4.171 -0.3316 -0.2797  0.0557
11800SOL    HW237395   7.970   1.915   4.317 -0.5842 -0.5115 -0.0336
11801SOL     OW37396   6.522   7.444   7.717 -0.4160 -0.3949 -1.0144
11801SOL    HW137397   6.541   7.370   7.659  0.0007 -0.6827 -0.5236
11801SOL    HW237398   6.607   7.465   7.757 -0.5943  0.1426 -0.9130
11802SOL     OW37399   2.226   0.897   4.639  0.3599 -0.4179  0.0563
11802SOL    HW137400   2.169   0.827   4.672  0.0592 -0.9884 -1.5576
11802SOL    HW237401   2.314   0.859   4.640  0.5349 -0.0268  1.2273
11803SOL     OW37402   7.469   1.025   2.776 -0.0729  0.2440  0.3629
11803SOL    HW137403   7.465   0.986   2.689 -0.3933  1.0691  0.0029
11803SOL    HW237404   7.382   1.061   2.790  0.1403  0.5944  0.7990
11804SOL     OW37405   7.795   6.781   8.162 -0.0659  0.3958 -0.4325
11804SOL    HW137406   7.883   6.796   8.128 -0.1209 -1.2764 -1.4150
11804SOL    HW237407   7.807   6.719   8.234 -0.5835 -1.7649 -2.0922
11805SOL     OW37408   5.451   6.616   0.918  0.5233  0.4366 -0.3673
11805SOL    HW137409   5.448   6.695   0.864 -0.8057  0.7676  0.1541
11805SOL    HW237410   5.522   6.632   0.980 -0.7448  1.9457  0.7679
11806SOL     OW37411   0.994   2.284   1.438 -0.1114  0.2385  0.2009
11806SOL    HW137412   1.076   2.321   1.469 -0.7424  1.3226  0.6095
11806SOL    HW237413   0.927   2.322   1.495 -0.9947  0.0568 -0.6893
11807SOL     OW37414   5.286   5.810   7.952 -0.3938 -0.1509  0.0152
11807SOL    HW137415   5.207   5.859   7.930  0.5562  0.8043 -1.4499
11807SOL    HW237416   5.310   5.765   7.872  1.1497  0.4622  0.1000
11808SOL     OW37417   6.800   6.409   3.363  0.1545 -0.2716  0.0588
11808SOL    HW137418   6.891   6.437   3.359  0.6546 -1.7299  0.4592
11808SOL    HW237419   6.757   6.456   3.292  1.5342 -0.6629 -1.0779
11809SOL     OW37420   6.501   8.719   4.199  0.0344 -0.5172  0.3404
11809SOL    HW137421   6.526   8.804   4.235  1.0519 -0.9626  0.7121
11809SOL    HW237422   6.411   8.706   4.227 -1.0414  1.5460 -1.7783
11810SOL     OW37423   1.551   7.458   8.776 -0.0216  0.5265  0.1754
11810SOL    HW137424   1.478   7.515   8.751 -1.5424 -1.8047 -1.1275
11810SOL    HW237425   1.557   7.394   8.704  0.2864 -2.1033  2.3689
11811SOL     OW37426   0.913   0.218   2.805 -0.5804  0.1175 -0.4408
11811SOL    HW137427   0.858   0.143   2.824  0.1928 -0.1189  1.0448
11811SOL    HW237428   0.905   0.273   2.883 -0.5892  1.2503 -1.2152
11812SOL     OW37429   6.482   7.956   2.676 -0.3217 -0.4259  0.5742
11812SOL    HW137430   6.408   8.015   2.663  0.8563  1.3282  1.5710
11812SOL    HW237431   6.556   8.000   2.635  0.3825 -1.7630  0.3341
11813SOL     OW37432   7.996   0.021   6.000 -0.6703  0.1050 -0.4854
11813SOL    HW137433   7.909   0.034   5.962 -0.1788  1.8761 -1.0982
11813SOL    HW237434   7.979  -0.021   6.085 -2.0150 -0.7102 -1.1203
11814SOL     OW37435   1.908   1.498   2.969 -0.3764  0.5725  0.4344
11814SOL    HW137436   2.001   1.514   2.951 -1.1458  0.7367 -4.7954
11814SOL    HW237437   1.899   1.403   2.971 -0.3442  0.4899 -1.5971
11815SOL     OW37438   1.735   1.845   4.660 -0.7243 -0.3364  0.5983
11815SOL    HW137439   1.783   1.765   4.680  0.0700  0.0545  0.3175
11815SOL    HW237440   1.798   1.900   4.614 -2.0939 -0.6950 -1.8486
11816SOL     OW37441   6.586   1.146   0.589  0.1488  0.2323  0.2890
11816SOL    HW137442   6.548   1.219   0.637 -0.8895 -0.7709  1.0269
11816SOL    HW237443   6.527   1.133   0.515  1.1375  1.0532 -0.6948
11817SOL     OW37444   7.328   7.391   8.571  0.0653 -0.4480 -0.3611
11817SOL    HW137445   7.260   7.341   8.614 -1.0846 -0.6242 -2.2804
11817SOL    HW237446   7.307   7.483   8.591 -0.2890 -0.5372 -0.3187
11818SOL     OW37447   5.527   4.983   7.657  0.0936  0.2838 -0.6765
11818SOL    HW137448   5.562   5.046   7.720 -3.9667  0.4738  1.7899
11818SOL    HW237449   5.554   4.897   7.691 -0.3208  0.4779  0.1769
11819SOL     OW37450   8.106   3.011   4.532  0.1681  0.0940 -0.4964
11819SOL    HW137451   8.108   3.069   4.608 -1.1987  0.4734 -0.7239
11819SOL    HW237452   8.125   2.924   4.566  1.1452  0.5019  0.0226
11820SOL     OW37453   7.696   8.733   8.050 -0.1594 -0.5356 -0.0909
11820SOL    HW137454   7.771   8.674   8.058  0.1962  0.0922  1.5706
11820SOL    HW237455   7.632   8.683   7.999  0.3646 -2.1269  0.7593
11821SOL     OW37456   4.585   5.219   6.605 -0.2466 -0.1938 -0.0409
11821SOL    HW137457   4.527   5.201   6.680 -1.0673  1.0873 -0.3446
11821SOL    HW237458   4.626   5.302   6.627  0.8460 -0.6714 -0.2347
11822SOL     OW37459   0.091   3.246   2.044 -0.9394  0.2893  0.4903
11822SOL    HW137460   0.131   3.160   2.043 -0.5538  0.4713 -0.2264
11822SOL    HW237461   0.150   3.301   1.991 -0.0499  1.4984  2.5703
11823SOL     OW37462   3.341   2.459   7.990  0.5010 -0.3645 -0.7265
11823SOL    HW137463   3.411   2.395   7.993  0.2224 -0.6538  1.1197
11823SOL    HW237464   3.354   2.512   8.069 -1.2742 -0.3773 -0.3714
11824SOL     OW37465   6.362   6.298   1.170 -0.0101 -0.0057  0.2544
11824SOL    HW137466   6.396   6.348   1.245  1.2233 -1.5367  0.7828
11824SOL    HW237467   6.362   6.360   1.097  0.9909  0.8994  0.9937
11825SOL     OW37468   3.179   2.806   0.065  0.1572 -0.1578  0.1266
11825SOL    HW137469   3.189   2.828  -0.027 -1.1810 -0.9607 -0.2430
11825SOL    HW237470   3.109   2.863   0.097 -0.1462 -0.6434  0.3462
11826SOL     OW37471   7.826   8.839   8.536  0.1450 -0.0325  0.0765
11826SOL    HW137472   7.922   8.838   8.529  0.0952  1.7089 -1.3313
11826SOL    HW237473   7.799   8.752   8.507  1.4037 -2.0760  4.1541
11827SOL     OW37474   5.635   2.942   0.807  0.0641  0.3766  0.0119
11827SOL    HW137475   5.619   2.858   0.850  1.1828  0.2617  0.2351
11827SOL    HW237476   5.591   2.934   0.722 -0.8372  0.0196  0.5046
11828SOL     OW37477   7.799   5.904   4.264 -0.3197 -0.3680 -0.4232
11828SOL    HW137478   7.719   5.925   4.216 -0.5244 -2.1601 -0.9461
11828SOL    HW237479   7.862   5.880   4.195  0.0214 -0.9785  0.0913
11829SOL     OW37480   0.808   6.542   4.352  0.5314 -0.3323  0.2743
11829SOL    HW137481   0.837   6.629   4.325  0.6839 -0.2884  0.5833
11829SOL    HW237482   0.812   6.490   4.272 -1.7402  0.5061 -0.4671
11830SOL     OW37483   5.584   7.900   2.641  0.0438  0.2982 -0.3704
11830SOL    HW137484   5.631   7.931   2.563 -1.7043  2.0788 -0.7753
11830SOL    HW237485   5.611   7.961   2.710  0.2552 -0.2181  0.0037
11831SOL     OW37486   2.588   7.804   5.177 -0.0657 -0.7462  0.2491
11831SOL    HW137487   2.593   7.710   5.192  0.8183 -0.5069  1.6379
11831SOL    HW237488   2.576   7.842   5.264 -0.3202  0.4339 -0.2804
11832SOL     OW37489   6.975   0.239   0.882  0.3384 -0.0266 -0.0643
11832SOL    HW137490   6.978   0.332   0.902 -0.4197 -0.1794  0.7938
11832SOL    HW237491   7.065   0.217   0.856  0.6658  0.8073  0.3414
11833SOL     OW37492   6.330   3.980   3.020 -0.3056 -0.3937 -0.6867
11833SOL    HW137493   6.261   3.919   3.046 -0.1579 -0.4063 -0.3214
11833SOL    HW237494   6.389   3.983   3.095  0.5739 -1.0687 -1.3328
11834SOL     OW37495   8.507   4.832   7.194 -0.6997  0.3097  0.2038
11834SOL    HW137496   8.492   4.884   7.115 -0.1885  0.5264  0.2425
11834SOL    HW237497   8.508   4.741   7.164 -1.2735  0.3398  0.0854
11835SOL     OW37498   6.402   5.169   6.646 -0.3703  0.3164  0.5993
11835SOL    HW137499   6.348   5.244   6.620  1.0414  1.7600  1.6833
11835SOL    HW237500   6.417   5.121   6.565 -0.4897  1.7521 -0.3077
11836SOL     OW37501   3.440   6.682   4.842  0.0408 -0.0496  0.2440
11836SOL    HW137502   3.350   6.707   4.864 -0.0844  0.3888 -0.7177
11836SOL    HW237503   3.460   6.732   4.763  1.0727 -0.2801  0.3461
11837SOL     OW37504   0.531   0.108   6.438  0.7064 -0.2208 -0.8156
11837SOL    HW137505   0.449   0.061   6.447 -0.0405  0.5765 -2.9652
11837SOL    HW237506   0.506   0.201   6.441  1.6968  0.0473 -0.2642
11838SOL     OW37507   8.290   2.802   6.013  0.0923 -0.0047  0.1547
11838SOL    HW137508   8.291   2.897   6.001  3.2776 -0.1147 -1.5281
11838SOL    HW237509   8.284   2.767   5.924 -0.0391 -1.3839  0.6860
11839SOL     OW37510   3.530   7.026   1.421  0.4069  0.1285 -0.2372
11839SOL    HW137511   3.476   7.091   1.465  2.0733  0.8048  0.9170
11839SOL    HW237512   3.486   7.012   1.337 -1.8950  0.1095  0.8999
11840SOL     OW37513   6.892   2.387   8.101  0.1371  0.1586  0.0028
11840SOL    HW137514   6.807   2.425   8.081 -0.3415 -0.9147 -0.1026
11840SOL    HW237515   6.885   2.360   8.193 -0.5593 -2.1337 -0.6449
11841SOL     OW37516   3.258   6.351   1.202  0.0036  0.0759 -0.3467
11841SOL    HW137517   3.272   6.332   1.295 -1.4924 -0.3892 -0.1864
11841SOL    HW237518   3.336   6.400   1.176  0.4487  0.2409  1.1532
11842SOL     OW37519   8.173   3.932   8.222 -0.0407 -0.0236  0.2408
11842SOL    HW137520   8.195   3.986   8.147  0.5291 -1.8245 -0.9577
11842SOL    HW237521   8.083   3.904   8.207  0.6965 -1.9982 -0.8826
11843SOL     OW37522   1.481   5.574   4.919 -0.2564  0.3645  0.0510
11843SOL    HW137523   1.389   5.590   4.902 -0.5477 -0.5640  0.6799
11843SOL    HW237524   1.487   5.478   4.928  0.4089  0.5505  2.0111
11844SOL     OW37525   1.492   8.260   3.414 -0.4968 -0.8183 -0.1755
11844SOL    HW137526   1.486   8.290   3.505 -1.6546  2.6143 -1.2500
11844SOL    HW237527   1.408   8.283   3.375  0.3318 -1.2950 -2.3855
11845SOL     OW37528   1.919   7.011   4.784  0.1460 -0.4020  0.8911
11845SOL    HW137529   1.994   7.071   4.779 -0.0351 -0.2657 -1.0765
11845SOL    HW237530   1.844   7.069   4.803 -0.2997  0.4025 -2.5475
11846SOL     OW37531   8.240   7.335   4.127  0.0834 -0.7767 -0.3133
11846SOL    HW137532   8.317   7.385   4.098  1.2442 -1.6000  1.1807
11846SOL    HW237533   8.211   7.380   4.206  0.9300 -2.1782  0.8551
11847SOL     OW37534   6.566   2.198   5.716 -0.3073 -0.4519 -0.4306
11847SOL    HW137535   6.530   2.148   5.643 -3.5399 -0.8901  1.2487
11847SOL    HW237536   6.490   2.215   5.772  1.7784  0.9680  2.1847
11848SOL     OW37537   1.837   7.287   5.642  0.2087  0.1885 -0.3231
11848SOL    HW137538   1.930   7.266   5.640  0.2921  0.2108  1.8471
11848SOL    HW237539   1.829   7.367   5.590  1.2535 -0.2099 -1.1380
11849SOL     OW37540   7.863   3.429   1.443 -0.0225 -0.3049  0.5111
11849SOL    HW137541   7.836   3.508   1.397  0.6632  0.1931  0.9427
11849SOL    HW237542   7.931   3.391   1.388  0.6715  0.1953  0.9990
11850SOL     OW37543   0.973   5.242   5.742  0.3631 -0.1124 -0.6770
11850SOL    HW137544   0.933   5.242   5.829 -1.3212 -1.5248 -1.3966
11850SOL    HW237545   1.067   5.236   5.759  0.0334 -1.0663  1.0455
11851SOL     OW37546   5.749   6.930   0.314  0.1942 -0.2367  0.5431
11851SOL    HW137547   5.655   6.946   0.301  0.0183 -1.3395  0.3746
11851SOL    HW237548   5.778   6.890   0.232  0.7104 -0.3436  0.7732
11852SOL     OW37549   1.187   1.343   1.106 -0.2267  0.0644  0.6324
11852SOL    HW137550   1.156   1.256   1.080 -0.8907  0.2381  0.8438
11852SOL    HW237551   1.174   1.346   1.201  1.1328 -0.1367  0.8531
11853SOL     OW37552   1.618   5.870   6.666  0.2647  0.4189  0.1757
11853SOL    HW137553   1.553   5.830   6.724 -1.0578  2.3031  0.0926
11853SOL    HW237554   1.701   5.863   6.713 -0.0873 -1.4745  0.5715
11854SOL     OW37555   2.331   6.174   1.103 -0.0774 -0.4897  0.1450
11854SOL    HW137556   2.266   6.244   1.113  0.6460  0.5339 -1.7459
11854SOL    HW237557   2.394   6.190   1.173  0.8405  1.6927 -1.0793
11855SOL     OW37558   0.286   8.020   6.074 -0.1275  0.2488 -0.0613
11855SOL    HW137559   0.327   7.983   5.997 -0.2479  0.5309 -0.2632
11855SOL    HW237560   0.313   8.112   6.074 -0.9396  0.4908 -0.3193
11856SOL     OW37561   5.720   4.195   0.151  0.1148 -0.4033  0.4892
11856SOL    HW137562   5.710   4.191   0.056 -1.0676 -0.0659  0.5834
11856SOL    HW237563   5.696   4.285   0.174 -0.0124 -0.5959  1.1454
11857SOL     OW37564   3.318   8.343   5.485 -0.5069  0.3912  0.4095
11857SOL    HW137565   3.314   8.388   5.569 -0.2616  1.0652  0.0668
11857SOL    HW237566   3.395   8.286   5.492  1.0090  2.2611 -0.2161
11858SOL     OW37567   7.674   5.468   2.638  0.5013  0.3719  0.1648
11858SOL    HW137568   7.710   5.510   2.717 -0.9195  0.2909  0.8827
11858SOL    HW237569   7.707   5.378   2.642  1.5179  0.7218 -0.0535
11859SOL     OW37570   8.600   7.738   3.973  0.1827  0.1762  0.3454
11859SOL    HW137571   8.577   7.766   4.062 -0.4317 -0.3306  0.3516
11859SOL    HW237572   8.566   7.808   3.917 -0.0453  0.1629  0.4646
11860SOL     OW37573   5.395   7.406   4.275 -0.2159  0.0603 -0.0872
11860SOL    HW137574   5.377   7.434   4.364  0.1539  1.5088 -0.4389
11860SOL    HW237575   5.374   7.313   4.274  0.7448 -0.2163  1.7705
11861SOL     OW37576   1.918   3.492   8.865 -0.6945  0.3393  0.1660
11861SOL    HW137577   1.878   3.406   8.879  2.2754 -1.2515 -0.3489
11861SOL    HW237578   1.914   3.504   8.770  2.5024 -1.3022 -0.3204
11862SOL     OW37579   6.689   5.955   7.342  0.3961  0.9014  0.2068
11862SOL    HW137580   6.669   6.030   7.398 -0.7881 -0.0118  1.0777
11862SOL    HW237581   6.656   5.980   7.256  0.2392  1.4836  0.4295
11863SOL     OW37582   2.207   4.793   5.865  0.1066 -0.2419 -0.1221
11863SOL    HW137583   2.272   4.843   5.814 -0.1237 -1.3899 -1.5885
11863SOL    HW237584   2.235   4.702   5.857 -0.2042 -0.5096  1.4682
11864SOL     OW37585   4.457   0.989   2.414 -0.1312 -0.7900 -0.3033
11864SOL    HW137586   4.374   0.949   2.439 -0.3458 -0.4656 -0.4877
11864SOL    HW237587   4.521   0.952   2.474 -0.1994 -1.9244 -0.8916
11865SOL     OW37588   3.279   4.230   2.330 -0.5922 -0.0099  0.1482
11865SOL    HW137589   3.242   4.306   2.374  0.1520  1.1633 -1.1840
11865SOL    HW237590   3.374   4.236   2.345 -0.2966  0.5011 -1.6528
11866SOL     OW37591   5.516   2.630   3.580 -0.0341 -0.0610 -0.0166
11866SOL    HW137592   5.497   2.611   3.488  1.5694  1.1136 -0.6383
11866SOL    HW237593   5.510   2.726   3.586  0.7867 -0.0506  0.8775
11867SOL     OW37594   8.462   6.763   6.622 -0.2074  0.2173 -0.0725
11867SOL    HW137595   8.420   6.838   6.663  2.6149  2.0345 -0.2772
11867SOL    HW237596   8.475   6.789   6.531 -0.0890 -0.9605 -0.4173
11868SOL     OW37597   4.622   1.009   3.784  0.3997  0.2153  0.3353
11868SOL    HW137598   4.679   0.963   3.845  0.9841  0.2971 -0.1404
11868SOL    HW237599   4.565   1.062   3.840  0.6304 -0.0501  0.8262
11869SOL     OW37600   2.803   0.392   4.453  0.2881 -0.5449  0.5556
11869SOL    HW137601   2.726   0.389   4.509  0.7289 -0.3011  1.1786
11869SOL    HW237602   2.877   0.404   4.513  0.6333  1.2617 -0.1581
11870SOL     OW37603   1.973   4.389   2.846 -0.0437 -0.1974 -0.4167
11870SOL    HW137604   2.047   4.395   2.907 -1.4414  0.1931  1.3182
11870SOL    HW237605   1.960   4.295   2.834  0.5513 -0.2708 -0.5216
11871SOL     OW37606   0.407   7.897   2.120 -0.2481 -0.2019  0.3772
11871SOL    HW137607   0.502   7.902   2.133  0.0713  0.4193 -1.7761
11871SOL    HW237608   0.372   7.971   2.168  0.2940 -0.6326  1.4784
11872SOL     OW37609   7.953   1.306   7.839  0.3057  0.6144 -0.0899
11872SOL    HW137610   7.932   1.214   7.854  1.9666  0.2639  0.3446
11872SOL    HW237611   7.875   1.342   7.797  0.1785 -1.3417 -1.6812
11873SOL     OW37612   2.624   8.582   2.218  0.0124 -0.5967  0.4222
11873SOL    HW137613   2.655   8.497   2.249 -1.3192 -1.2490  0.0146
11873SOL    HW237614   2.542   8.596   2.266 -0.1541  0.1109 -0.0601
11874SOL     OW37615   7.473   4.634   5.249  0.1541  0.5227 -0.6229
11874SOL    HW137616   7.536   4.610   5.181  0.5871 -0.0075 -0.0394
11874SOL    HW237617   7.393   4.589   5.225  0.0721  0.9643 -1.2074
11875SOL     OW37618   6.175   4.703   1.617 -0.4198 -0.3137  0.6424
11875SOL    HW137619   6.267   4.687   1.639 -0.5412  1.3931  2.7227
11875SOL    HW237620   6.172   4.795   1.591 -1.5728 -0.2881  0.7897
11876SOL     OW37621   4.058   3.826   1.643 -0.7582 -0.2420 -0.1007
11876SOL    HW137622   4.018   3.769   1.577 -0.1423  0.1052 -0.7893
11876SOL    HW237623   3.985   3.877   1.678 -1.3619 -1.6251  0.7170
11877SOL     OW37624   3.191   5.603   7.151  0.3583 -0.0980  0.0630
11877SOL    HW137625   3.243   5.639   7.223  1.6136  0.1035 -0.9026
11877SOL    HW237626   3.197   5.670   7.082 -0.1437 -0.6353 -0.5103
11878SOL     OW37627   2.546   1.488   3.133 -0.4388  0.4918 -0.8502
11878SOL    HW137628   2.584   1.473   3.220 -0.4892  0.3682 -0.8487
11878SOL    HW237629   2.608   1.545   3.088  0.1441 -0.3516 -1.1340
11879SOL     OW37630   1.350   2.938   1.907 -0.3790 -0.1176  0.3095
11879SOL    HW137631   1.300   2.872   1.955 -0.2604 -0.6784 -0.3229
11879SOL    HW237632   1.317   3.021   1.940 -0.9229 -0.4859  0.7215
11880SOL     OW37633   5.445   3.769   3.089  0.3025 -0.2019  0.0334
11880SOL    HW137634   5.483   3.852   3.061  0.4300 -0.7025 -1.3812
11880SOL    HW237635   5.495   3.703   3.040 -1.9586 -0.9230 -1.4891
11881SOL     OW37636   3.394   8.668   7.921 -0.3539  0.1562  0.4310
11881SOL    HW137637   3.431   8.617   7.849  0.5402  3.2651 -1.5181
11881SOL    HW237638   3.309   8.698   7.889 -0.6768  0.2515  1.3383
11882SOL     OW37639   2.420   1.642   8.886 -0.0034 -0.0808 -0.0052
11882SOL    HW137640   2.412   1.664   8.979  0.2733 -1.3875  0.3510
11882SOL    HW237641   2.489   1.699   8.853 -0.5058  0.8093  0.4396
11883SOL     OW37642   6.530   8.351   7.652 -0.2858  0.1619  0.2990
11883SOL    HW137643   6.557   8.298   7.728 -0.6517  1.0824  1.0935
11883SOL    HW237644   6.598   8.417   7.644  2.1051 -2.3693 -2.8598
11884SOL     OW37645   7.561   4.729   8.577  0.0910  0.0071  0.3217
11884SOL    HW137646   7.572   4.815   8.618  0.2694 -0.7602  1.9551
11884SOL    HW237647   7.629   4.726   8.510 -0.0984  1.2350  0.0413
11885SOL     OW37648   4.870   8.660   7.061 -0.2888 -0.9402 -0.7626
11885SOL    HW137649   4.786   8.706   7.069  0.0087 -0.5934  0.7712
11885SOL    HW237650   4.894   8.668   6.969 -2.6861 -2.4032 -1.6063
11886SOL     OW37651   6.161   5.336   0.142  0.2219  0.5578 -0.1411
11886SOL    HW137652   6.222   5.299   0.078  0.0693 -0.6971  0.4175
11886SOL    HW237653   6.075   5.307   0.113 -0.1333  2.2212 -0.8576
11887SOL     OW37654   0.882   3.894   2.158 -0.2119 -0.1677 -0.0601
11887SOL    HW137655   0.894   3.982   2.195  0.1238 -0.5819  0.8381
11887SOL    HW237656   0.971   3.863   2.141 -0.3454 -0.1604 -0.8244
11888SOL     OW37657   4.726   8.173   5.766  0.0922 -0.3242 -0.3141
11888SOL    HW137658   4.795   8.111   5.790  0.1590 -0.5666 -1.1149
11888SOL    HW237659   4.772   8.256   5.751  0.0198 -0.1013  0.6056
11889SOL     OW37660   1.837   4.237   0.534 -0.2141 -0.8068 -0.2758
11889SOL    HW137661   1.769   4.172   0.513  0.1688 -1.5636  0.7026
11889SOL    HW237662   1.801   4.287   0.607 -0.9346  0.8164 -1.6803
11890SOL     OW37663   8.403   1.756   1.809 -0.4569 -0.3031 -0.3704
11890SOL    HW137664   8.394   1.782   1.717  0.0490  0.7998 -0.1350
11890SOL    HW237665   8.467   1.685   1.808 -0.5523 -0.3851 -0.8846
11891SOL     OW37666   2.861   0.558   6.757 -0.3875 -0.1219  0.2790
11891SOL    HW137667   2.892   0.648   6.753  1.1496 -0.6326 -2.8844
11891SOL    HW237668   2.941   0.505   6.753 -1.2534 -1.6697  2.1323
11892SOL     OW37669   7.522   3.497   1.734 -0.3301  0.2832 -0.7004
11892SOL    HW137670   7.461   3.435   1.774 -0.8005  0.8439 -0.5289
11892SOL    HW237671   7.572   3.533   1.807  0.4464 -0.4217 -0.8772
11893SOL     OW37672   8.461   0.642   6.977 -0.4057 -0.4011 -0.9659
11893SOL    HW137673   8.469   0.567   7.035  0.8330 -0.2473 -0.9114
11893SOL    HW237674   8.369   0.669   6.984 -0.5919 -1.2255 -0.1471
11894SOL     OW37675   7.259   0.557   8.566  0.0783  0.0415 -0.4296
11894SOL    HW137676   7.220   0.603   8.640  0.1019  0.0124 -0.3994
11894SOL    HW237677   7.269   0.624   8.498 -0.2524 -0.0033 -0.5247
11895SOL     OW37678   6.977   1.624   2.463  0.3569 -0.2108 -0.0418
11895SOL    HW137679   7.025   1.553   2.421  0.6588  0.1021 -0.2292
11895SOL    HW237680   6.885   1.598   2.456  0.3488  0.1437 -1.4833
11896SOL     OW37681   5.395   4.640   0.957  0.3518  0.1574  0.0321
11896SOL    HW137682   5.332   4.699   0.998  0.4284 -0.0718  0.4947
11896SOL    HW237683   5.479   4.683   0.968  0.4983 -0.3307  0.9687
11897SOL     OW37684   2.945   5.014   2.663  0.3802 -0.0956 -0.5874
11897SOL    HW137685   2.878   5.019   2.595  0.2513 -0.7345 -0.5157
11897SOL    HW237686   2.939   5.098   2.709 -1.7243 -0.8168  0.6564
11898SOL     OW37687   8.270   6.115   3.435 -0.0113 -0.5275  0.5477
11898SOL    HW137688   8.247   6.153   3.351 -0.1021  0.1584  0.8796
11898SOL    HW237689   8.193   6.128   3.490  0.5682  0.3606  1.1796
11899SOL     OW37690   5.783   0.426   4.221 -0.0242  0.3766  0.5635
11899SOL    HW137691   5.836   0.456   4.294  1.4861 -2.4361  0.7491
11899SOL    HW237692   5.846   0.388   4.159 -1.5560 -0.3611 -0.6320
11900SOL     OW37693   1.456   7.311   3.662  0.2366  0.2281  0.1692
11900SOL    HW137694   1.480   7.258   3.738 -0.7395 -1.6745 -0.7821
11900SOL    HW237695   1.397   7.378   3.698 -0.1353 -0.5863  1.1290
11901SOL     OW37696   4.908   0.559   4.423 -0.2912  0.0117 -0.2915
11901SOL    HW137697   4.923   0.534   4.331  2.3628  0.9133 -0.2161
11901SOL    HW237698   4.930   0.653   4.425 -1.1923  0.2076  1.1063
11902SOL     OW37699   7.399   8.450   2.159 -0.2846 -0.5211  0.1646
11902SOL    HW137700   7.467   8.514   2.142 -0.1476 -0.5349  0.6493
11902SOL    HW237701   7.447   8.371   2.185 -0.3940 -1.1895 -1.5401
11903SOL     OW37702   1.343   6.599   1.755  0.3200 -0.1422  0.2960
11903SOL    HW137703   1.318   6.511   1.784 -0.2210 -0.5287 -1.2515
11903SOL    HW237704   1.413   6.584   1.692  1.2397  0.6513  1.1045
11904SOL     OW37705   1.572   6.971   6.656 -0.0735  0.2177 -0.4765
11904SOL    HW137706   1.519   7.004   6.584  0.0037  1.7698  0.1388
11904SOL    HW237707   1.528   7.003   6.735  1.4806  1.1332  0.0624
11905SOL     OW37708   4.484   2.801   6.652  0.4349 -0.7407 -0.0188
11905SOL    HW137709   4.517   2.856   6.580 -1.0537 -0.8518 -0.8419
11905SOL    HW237710   4.392   2.786   6.629  0.2554 -1.7991  1.3064
11906SOL     OW37711   0.524   5.116   3.995  0.0223  0.1726  0.0877
11906SOL    HW137712   0.606   5.126   4.043  0.5632 -0.0932 -0.7571
11906SOL    HW237713   0.516   5.195   3.942 -0.1243  0.0713 -0.0452
11907SOL     OW37714   6.707   1.612   2.921 -0.3302 -0.6191  0.3057
11907SOL    HW137715   6.716   1.670   2.996 -0.4518 -2.1997  1.6130
11907SOL    HW237716   6.786   1.626   2.869 -0.4250  0.7805  0.5134
11908SOL     OW37717   1.883   5.747   7.975 -0.1437  0.0578  0.5091
11908SOL    HW137718   1.787   5.748   7.974 -0.1775  0.5266  1.8214
11908SOL    HW237719   1.908   5.838   7.958  0.0640 -0.0130  0.4339
11909SOL     OW37720   4.026   0.535   5.886 -0.0076 -0.7771  0.4331
11909SOL    HW137721   4.069   0.620   5.878  1.5241 -1.6094 -0.8872
11909SOL    HW237722   4.048   0.505   5.974 -0.9245  0.3620  1.0665
11910SOL     OW37723   3.468   5.797   0.122  0.1841  0.0120 -0.2694
11910SOL    HW137724   3.479   5.710   0.159 -1.6342  0.3831  1.2768
11910SOL    HW237725   3.471   5.856   0.197 -1.8117  0.9599 -0.8544
11911SOL     OW37726   2.763   3.561   7.692 -0.6965  0.1792 -0.0192
11911SOL    HW137727   2.682   3.544   7.644  0.6055 -0.0953 -2.2287
11911SOL    HW237728   2.825   3.591   7.626  1.7204 -1.8121  1.1508
11912SOL     OW37729   1.004   5.275   1.448  0.0389  0.3604 -0.2918
11912SOL    HW137730   0.913   5.300   1.435 -0.2494 -0.0425  0.7954
11912SOL    HW237731   1.001   5.183   1.473  0.5783  0.7291  1.2860
11913SOL     OW37732   6.941   5.772   5.304  0.1786  0.5037 -0.1783
11913SOL    HW137733   6.909   5.683   5.292 -0.7418  0.8184 -0.1565
11913SOL    HW237734   6.994   5.789   5.226 -0.0613  0.1167 -0.4273
11914SOL     OW37735   6.734   8.121   3.365  0.3959  0.3230  0.3055
11914SOL    HW137736   6.748   8.108   3.271 -0.6052 -0.1549  0.2013
11914SOL    HW237737   6.723   8.032   3.400  0.0165  0.5354  0.7431
11915SOL     OW37738   7.118   1.418   1.611 -0.2240  0.4333  0.5055
11915SOL    HW137739   7.051   1.377   1.665 -0.9529  0.6033 -0.2488
11915SOL    HW237740   7.108   1.377   1.525  0.0706  1.0789  0.1569
11916SOL     OW37741   1.176   4.313   6.561 -0.2747 -0.1760  0.1089
11916SOL    HW137742   1.181   4.268   6.477  0.2416 -2.8080  1.4355
11916SOL    HW237743   1.089   4.353   6.562  0.1369  0.8944 -2.0788
11917SOL     OW37744   4.431   6.285   2.359 -0.6235  0.0519  0.2298
11917SOL    HW137745   4.435   6.215   2.294 -0.3288  0.2867 -0.0073
11917SOL    HW237746   4.521   6.297   2.387 -0.5686  0.7825 -0.2157
11918SOL     OW37747   7.667   6.622   0.645 -0.7692 -0.4813  0.1305
11918SOL    HW137748   7.674   6.633   0.551 -0.6664 -0.3660  0.1505
11918SOL    HW237749   7.585   6.665   0.668  0.7098  2.4567  0.5196
11919SOL     OW37750   3.495   7.375   5.086  0.0382  0.1245  0.2781
11919SOL    HW137751   3.513   7.457   5.041 -1.2275  0.8607  1.0346
11919SOL    HW237752   3.564   7.369   5.153 -1.9753  2.6801  2.8733
11920SOL     OW37753   0.699   0.468   6.961  0.4952  0.1300 -0.1497
11920SOL    HW137754   0.648   0.544   6.985 -0.1122 -0.2099 -0.3482
11920SOL    HW237755   0.652   0.394   7.000  0.8490 -0.1825 -0.3059
11921SOL     OW37756   5.910   4.447   0.740 -0.4955  0.1599 -0.6853
11921SOL    HW137757   5.974   4.391   0.785 -0.4898  0.5518 -0.2025
11921SOL    HW237758   5.953   4.472   0.658  1.7366  3.7461  1.3355
11922SOL     OW37759   6.744   5.736   7.535 -0.1782  0.4428  0.2037
11922SOL    HW137760   6.737   5.801   7.465 -0.0213 -1.2444 -1.4632
11922SOL    HW237761   6.770   5.656   7.490 -1.3005 -1.0218  2.0451
11923SOL     OW37762   7.017   1.090   2.334 -0.5952 -0.7869  0.0829
11923SOL    HW137763   6.930   1.053   2.354  0.1707 -2.5103  0.3999
11923SOL    HW237764   7.074   1.054   2.402  0.3914  0.2807 -0.1603
11924SOL     OW37765   4.445   2.197   5.636 -0.0913  0.4306 -0.2085
11924SOL    HW137766   4.527   2.246   5.643 -0.6279  1.4433 -0.6564
11924SOL    HW237767   4.388   2.236   5.703 -0.5258  0.4313 -0.5703
11925SOL     OW37768   3.481   5.427   2.641  0.3854 -0.5782 -0.3213
11925SOL    HW137769   3.529   5.368   2.699  0.9189  0.4541  0.3087
11925SOL    HW237770   3.548   5.473   2.592  0.2149  1.9571  1.6200
11926SOL     OW37771   7.022   2.573   3.532  0.1536 -0.1447  0.7912
11926SOL    HW137772   7.006   2.484   3.501 -2.1523  0.4942 -0.0631
11926SOL    HW237773   6.959   2.586   3.602 -0.6892  1.3256 -0.1880
11927SOL     OW37774   2.706   2.939   7.728 -0.0049 -0.6026  0.6647
11927SOL    HW137775   2.647   2.991   7.674  0.5045 -1.7648 -1.1028
11927SOL    HW237776   2.648   2.887   7.784 -0.5922 -0.4894  0.1694
11928SOL     OW37777   0.366   4.579   1.013  0.0119  1.0075  0.5739
11928SOL    HW137778   0.308   4.599   0.940  0.9223  1.4455 -0.0383
11928SOL    HW237779   0.454   4.587   0.978  0.5988 -3.9893  0.2412
11929SOL     OW37780   7.277   6.910   8.258  0.2848  0.4094 -0.0605
11929SOL    HW137781   7.234   6.861   8.328 -0.6407  0.1814 -0.7697
11929SOL    HW237782   7.323   6.981   8.303 -0.1385  0.1573  0.7844
11930SOL     OW37783   6.705   6.439   8.394 -0.2103  0.9173 -0.0752
11930SOL    HW137784   6.648   6.429   8.470  0.3064 -2.0462  0.0416
11930SOL    HW237785   6.750   6.522   8.409 -1.4759  1.3165  1.8926
11931SOL     OW37786   1.455   7.836   0.856  0.3508  0.2345 -0.3980
11931SOL    HW137787   1.530   7.843   0.797 -0.3308  0.4701 -1.2513
11931SOL    HW237788   1.478   7.892   0.931  1.9624 -1.4084  0.3962
11932SOL     OW37789   6.638   3.255   4.783 -0.9854  0.4064 -0.2966
11932SOL    HW137790   6.659   3.224   4.695  0.4560  0.4598 -0.0099
11932SOL    HW237791   6.603   3.178   4.828  1.3587 -0.5576  0.0302
11933SOL     OW37792   1.502   8.184   1.714 -1.0002  0.3464  0.1469
11933SOL    HW137793   1.552   8.200   1.793 -0.9727 -1.7780  0.6281
11933SOL    HW237794   1.509   8.090   1.700  1.7668  0.9360 -4.2558
11934SOL     OW37795   5.879   5.708   8.528 -0.1411  0.1864  0.8687
11934SOL    HW137796   5.916   5.630   8.488 -1.3754 -0.3771  0.7757
11934SOL    HW237797   5.843   5.677   8.611  0.2148  0.8571  1.2841
11935SOL     OW37798   3.275   2.819   7.720  0.3488 -0.3781  0.4406
11935SOL    HW137799   3.317   2.737   7.742 -0.5056 -0.9329  0.0508
11935SOL    HW237800   3.256   2.812   7.626 -2.0414 -0.8378  0.9060
11936SOL     OW37801   1.022   5.022   4.777  0.1439 -0.7404 -0.2961
11936SOL    HW137802   0.946   5.001   4.832  2.2042 -2.3219  2.2267
11936SOL    HW237803   1.091   5.044   4.840  1.5806  1.5412 -2.5138
11937SOL     OW37804   1.573   6.597   8.840  0.5377  0.0590 -0.1445
11937SOL    HW137805   1.532   6.681   8.819 -2.1897 -1.0592  0.2789
11937SOL    HW237806   1.657   6.620   8.880 -0.0752  2.5682 -0.1581
11938SOL     OW37807   1.708   2.639   0.176  0.1936  0.1282 -0.1299
11938SOL    HW137808   1.792   2.612   0.139 -0.8217 -1.6059 -1.3072
11938SOL    HW237809   1.679   2.565   0.229 -1.0306  0.3092 -0.5067
11939SOL     OW37810   7.285   0.013   3.883  0.1132 -0.3468  0.6661
11939SOL    HW137811   7.267  -0.065   3.935 -2.9989  1.0374  1.9495
11939SOL    HW237812   7.328   0.073   3.944 -1.2391  0.3502  0.9949
11940SOL     OW37813   0.421   8.448   7.797  0.0461  0.5178 -0.2201
11940SOL    HW137814   0.403   8.392   7.721  2.1925 -0.4908 -0.0581
11940SOL    HW237815   0.445   8.386   7.866  4.2881  1.4991 -0.5103
11941SOL     OW37816   4.119   3.611   5.644  0.3298  0.0483 -0.4781
11941SOL    HW137817   4.191   3.662   5.680 -0.0813  0.5634 -0.3692
11941SOL    HW237818   4.080   3.668   5.578 -0.3025 -0.0049 -0.1660
11942SOL     OW37819   1.885   0.005   0.070  0.0574  0.2395 -0.3812
11942SOL    HW137820   1.826  -0.064   0.037 -0.8371  1.2768 -1.0462
11942SOL    HW237821   1.886   0.070  -0.000  1.2602  0.6918  0.0409
11943SOL     OW37822   6.418   6.469   6.151  0.0886  0.1465 -0.0315
11943SOL    HW137823   6.411   6.485   6.245  1.4281  1.8358 -0.1736
11943SOL    HW237824   6.492   6.409   6.142 -1.5141 -2.0131  0.0846
11944SOL     OW37825   3.777   8.142   4.658  0.3885  0.5049  0.1935
11944SOL    HW137826   3.707   8.202   4.684  0.2793 -0.0470  1.2078
11944SOL    HW237827   3.784   8.154   4.563 -2.9805 -1.4328 -0.4532
11945SOL     OW37828   3.445   2.932   1.903  0.0389 -0.3831 -0.9026
11945SOL    HW137829   3.350   2.938   1.907  0.1109  1.0547 -0.4981
11945SOL    HW237830   3.475   3.021   1.925  1.4105 -0.0560 -3.7090
11946SOL     OW37831   5.545   4.127   6.507 -0.1107 -0.0575  0.1196
11946SOL    HW137832   5.592   4.143   6.589 -1.1677 -0.3591  0.8068
11946SOL    HW237833   5.570   4.039   6.481 -0.2198 -0.1806  0.4318
11947SOL     OW37834   1.985   3.041   8.536 -0.1422 -0.0086  0.5733
11947SOL    HW137835   2.078   3.058   8.523 -0.2597 -0.1534 -0.6215
11947SOL    HW237836   1.980   3.000   8.622  0.8915  0.0243  0.6670
11948SOL     OW37837   3.692   7.173   4.586 -0.1356 -0.4795  0.4560
11948SOL    HW137838   3.623   7.213   4.639 -0.8458  0.6352 -1.2034
11948SOL    HW237839   3.755   7.244   4.571 -0.7658 -0.2442 -1.4629
11949SOL     OW37840   1.440   2.832   8.265  0.3496  0.1461 -0.3889
11949SOL    HW137841   1.493   2.894   8.215  0.1634  0.1613 -0.5697
11949SOL    HW237842   1.351   2.867   8.260  0.4354  0.5210  0.5346
11950SOL     OW37843   1.310   4.431   3.303  0.2324 -0.2019  0.1260
11950SOL    HW137844   1.343   4.341   3.294 -1.0688 -0.5978 -0.9210
11950SOL    HW237845   1.279   4.436   3.393  1.6526 -0.3110  0.6502
11951SOL     OW37846   1.430   8.718   8.547 -0.2721 -0.3409 -0.2057
11951SOL    HW137847   1.469   8.659   8.611 -0.5424 -1.4481 -1.0159
11951SOL    HW237848   1.479   8.800   8.556  1.3197 -1.2355 -0.2381
11952SOL     OW37849   6.847   4.755   5.261 -0.6086  0.7092 -0.0518
11952SOL    HW137850   6.937   4.777   5.237 -0.6746 -0.0301 -1.0233
11952SOL    HW237851   6.809   4.838   5.292  0.0808  1.2504 -0.6275
11953SOL     OW37852   5.952   6.422   0.524  0.4368 -0.1349  0.1608
11953SOL    HW137853   5.918   6.339   0.489 -0.4160  0.2001  0.1774
11953SOL    HW237854   6.016   6.451   0.459  1.5698 -1.3608  0.6976
11954SOL     OW37855   0.347   5.227   1.317 -0.0463 -0.2643  0.4550
11954SOL    HW137856   0.320   5.141   1.348  0.6331 -1.1203 -1.1910
11954SOL    HW237857   0.436   5.238   1.351  0.3464 -0.7972 -0.3574
11955SOL     OW37858   7.728   3.355   6.268 -0.6273  0.1897  0.0250
11955SOL    HW137859   7.731   3.341   6.174 -2.8460  0.2130 -0.1234
11955SOL    HW237860   7.723   3.450   6.279 -0.9398  0.1692  0.1018
11956SOL     OW37861   8.128   5.657   7.557 -0.2623 -0.0618  0.8007
11956SOL    HW137862   8.095   5.620   7.476  1.0218 -0.2651  0.3394
11956SOL    HW237863   8.165   5.742   7.532 -0.2444  0.0667  1.2456
11957SOL     OW37864   2.050   6.162   6.213 -0.5042 -0.2034  0.5529
11957SOL    HW137865   1.956   6.150   6.200 -0.4055 -0.2811 -0.1164
11957SOL    HW237866   2.056   6.220   6.289 -1.1775  2.1429 -1.0552
11958SOL     OW37867   2.734   2.038   6.870  0.2490  0.0486 -0.2128
11958SOL    HW137868   2.721   2.084   6.787  0.4855  0.8608  0.1928
11958SOL    HW237869   2.808   1.979   6.854  0.4535  0.3845 -0.5048
11959SOL     OW37870   4.682   0.407   8.437 -0.0002 -0.4267 -0.2582
11959SOL    HW137871   4.719   0.470   8.374 -1.0230 -1.7200 -2.2816
11959SOL    HW237872   4.618   0.458   8.487  0.4748  0.5426 -0.6158
11960SOL     OW37873   5.447   4.187   8.744  0.3423  0.4915  0.6303
11960SOL    HW137874   5.414   4.120   8.684  0.9202  0.3499  0.4595
11960SOL    HW237875   5.376   4.201   8.807  0.2934 -0.4166  0.7776
11961SOL     OW37876   7.193   1.493   8.668  0.4192  0.3073  0.2593
11961SOL    HW137877   7.115   1.546   8.685  1.0508  1.0480  0.9361
11961SOL    HW237878   7.210   1.447   8.750  0.6542  0.0929  0.0931
11962SOL     OW37879   0.982   1.180   2.713  0.3296  0.3407 -0.0974
11962SOL    HW137880   1.040   1.116   2.672 -0.4806 -1.2563  1.1695
11962SOL    HW237881   0.978   1.252   2.649  2.1194 -0.3496 -1.0746
11963SOL     OW37882   3.429   2.206   5.186  0.5332  0.1048 -0.4399
11963SOL    HW137883   3.352   2.165   5.226  0.9727 -1.5159 -1.1967
11963SOL    HW237884   3.405   2.217   5.094  0.5924  1.1767 -0.3414
11964SOL     OW37885   7.647   2.464   7.995 -0.3631  0.3684  0.4510
11964SOL    HW137886   7.721   2.407   7.975 -1.2922 -0.6462 -0.2275
11964SOL    HW237887   7.583   2.407   8.039 -1.2170  0.9156 -0.0448
11965SOL     OW37888   4.709   5.242   5.525 -0.6820 -0.0080  0.2869
11965SOL    HW137889   4.800   5.243   5.552 -0.3884  1.0953 -0.6877
11965SOL    HW237890   4.700   5.163   5.471 -0.8128 -1.1804  1.9561
11966SOL     OW37891   2.545   6.898   6.963 -0.5758 -0.1046 -0.1638
11966SOL    HW137892   2.628   6.934   6.930  1.7416 -4.1594  0.5418
11966SOL    HW237893   2.529   6.947   7.044  1.7538  0.1493  0.2199
11967SOL     OW37894   2.216   0.023   0.726  0.5312  0.5709  0.3088
11967SOL    HW137895   2.193  -0.069   0.743 -0.3780  0.9164  1.0146
11967SOL    HW237896   2.193   0.036   0.634 -1.0398  0.5751  0.6837
11968SOL     OW37897   7.890   6.174   6.074  0.3796  0.0989  0.3347
11968SOL    HW137898   7.921   6.229   6.146 -0.4031  0.6117  0.2980
11968SOL    HW237899   7.800   6.203   6.059  1.1129  1.3652 -2.1420
11969SOL     OW37900   2.075   2.644   8.384  0.0341  0.0270  0.8136
11969SOL    HW137901   1.988   2.665   8.350  0.6859  0.2812 -0.7704
11969SOL    HW237902   2.090   2.554   8.356  0.4576  0.1360  0.6867
11970SOL     OW37903   1.556   2.228   3.419  0.3663 -0.0566  0.2770
11970SOL    HW137904   1.546   2.296   3.353 -1.0482 -0.4430  0.0749
11970SOL    HW237905   1.477   2.175   3.411 -0.2980  0.4340  2.9158
11971SOL     OW37906   4.719   2.655   4.513 -0.0769 -0.1601 -0.0972
11971SOL    HW137907   4.733   2.740   4.555  1.9177 -0.0863 -0.7913
11971SOL    HW237908   4.767   2.593   4.568 -0.1921 -0.5689 -0.4563
11972SOL     OW37909   3.420   2.140   6.993 -0.4209 -0.4617  0.2199
11972SOL    HW137910   3.461   2.195   6.926 -0.4366  1.6829  1.8559
11972SOL    HW237911   3.326   2.149   6.977 -0.4556  0.7207  0.9796
11973SOL     OW37912   3.518   5.799   8.442  0.2096  0.0817  0.4262
11973SOL    HW137913   3.560   5.885   8.443  1.0562 -0.3155  0.0759
11973SOL    HW237914   3.496   5.784   8.351 -0.5512  0.2160  0.5868
11974SOL     OW37915   1.672   0.439   6.712  0.2840 -0.1295 -0.1797
11974SOL    HW137916   1.718   0.508   6.761  0.8387  0.1392 -1.0526
11974SOL    HW237917   1.584   0.436   6.752  0.2283  1.1316 -0.1627
11975SOL     OW37918   3.983   7.066   8.686 -0.2104 -0.1921  0.3950
11975SOL    HW137919   4.033   7.088   8.765 -0.6104 -0.9791  0.8929
11975SOL    HW237920   4.034   7.102   8.614  2.4750 -3.0797  0.6333
11976SOL     OW37921   0.494   3.147   2.477 -0.2361  0.0329  0.3019
11976SOL    HW137922   0.571   3.156   2.421 -0.5095 -1.1077 -0.2901
11976SOL    HW237923   0.431   3.209   2.440 -0.0309  0.0739  0.0135
11977SOL     OW37924   1.258   1.025   0.654 -0.0372 -0.2696  0.2564
11977SOL    HW137925   1.303   1.081   0.591 -0.2774  0.0298  0.3499
11977SOL    HW237926   1.192   1.082   0.694  0.3628 -0.3462  1.0509
11978SOL     OW37927   7.563   3.079   7.571  0.8411  0.4089  0.1742
11978SOL    HW137928   7.577   3.091   7.478  1.6629 -1.7443 -0.0331
11978SOL    HW237929   7.473   3.108   7.586  0.5123  0.2642 -1.3951
11979SOL     OW37930   6.585   7.381   1.863 -0.5383 -0.3091 -0.5224
11979SOL    HW137931   6.656   7.347   1.917 -0.1409 -0.1935 -0.9657
11979SOL    HW237932   6.560   7.463   1.905 -1.6647 -1.2314  0.6864
11980SOL     OW37933   0.307   0.401   2.074  0.3567 -0.2868 -0.8464
11980SOL    HW137934   0.368   0.329   2.089 -0.7383 -1.2203 -0.7178
11980SOL    HW237935   0.224   0.371   2.111 -0.0732  1.1588 -0.5474
11981SOL     OW37936   5.427   0.721   3.760 -0.1113  0.1325 -0.3588
11981SOL    HW137937   5.355   0.773   3.722  0.9793  1.3591 -0.8266
11981SOL    HW237938   5.499   0.730   3.698  0.0203 -2.3443 -0.6765
11982SOL     OW37939   7.747   6.597   2.686  0.3404 -0.3049  0.5254
11982SOL    HW137940   7.789   6.612   2.601 -1.7488 -1.0705 -0.7151
11982SOL    HW237941   7.675   6.660   2.689 -2.2519 -3.0017 -0.2547
11983SOL     OW37942   4.197   8.858   8.815  0.2444 -0.0813 -0.6223
11983SOL    HW137943   4.235   8.889   8.897 -2.0927 -0.8346  0.8578
11983SOL    HW237944   4.186   8.763   8.828 -0.0007 -0.2434 -1.8693
11984SOL     OW37945   0.962   1.021   0.353 -0.2502  0.1766 -0.3502
11984SOL    HW137946   0.923   0.968   0.423 -0.3762  0.8426  0.1010
11984SOL    HW237947   0.891   1.034   0.291 -0.7849  1.4073  0.4833
11985SOL     OW37948   0.857   6.450   3.087 -0.4395  0.3460  0.2396
11985SOL    HW137949   0.811   6.495   3.158 -0.9474 -1.1209  0.8967
11985SOL    HW237950   0.901   6.519   3.038 -3.0485  1.8365 -0.2013
11986SOL     OW37951   7.771   5.109   7.031 -0.1353  0.2593 -0.4038
11986SOL    HW137952   7.829   5.146   6.964  2.1437 -0.3619  1.1443
11986SOL    HW237953   7.743   5.185   7.083 -0.8938  0.5781 -1.2434
11987SOL     OW37954   1.483   3.051   3.976 -0.6182  1.2153 -0.3232
11987SOL    HW137955   1.389   3.039   3.961 -0.8722  2.7247 -0.1057
11987SOL    HW237956   1.521   3.050   3.888 -0.5998 -0.8821 -0.3423
11988SOL     OW37957   0.782   4.624   5.677 -0.0925  0.5162  0.5427
11988SOL    HW137958   0.877   4.621   5.668 -0.2678  0.6430 -2.2419
11988SOL    HW237959   0.755   4.533   5.684  0.1234  0.2494 -1.3938
11989SOL     OW37960   4.334   0.201   3.979  0.3556  0.3164 -0.1658
11989SOL    HW137961   4.418   0.233   3.946 -0.9807  2.6350 -1.5995
11989SOL    HW237962   4.325   0.114   3.940  0.9509  1.0992 -2.1810
11990SOL     OW37963   7.165   1.599   8.276  0.5760  0.5201 -0.0172
11990SOL    HW137964   7.237   1.657   8.254  0.1642  1.1210  0.2038
11990SOL    HW237965   7.126   1.636   8.355  0.5165 -0.2435  0.3193
11991SOL     OW37966   3.576   5.441   5.346 -0.2578 -0.6369  0.4002
11991SOL    HW137967   3.515   5.506   5.382  0.2433 -0.6405  1.2877
11991SOL    HW237968   3.658   5.458   5.392  0.0838 -1.4224  0.0894
11992SOL     OW37969   8.251   6.894   0.861 -0.4776  0.5731  0.7718
11992SOL    HW137970   8.234   6.912   0.954 -0.3600  3.6151  0.3012
11992SOL    HW237971   8.346   6.896   0.853 -0.5200  2.2317  0.3238
11993SOL     OW37972   8.803   2.017   8.889  0.4380 -0.2535 -0.3497
11993SOL    HW137973   8.894   2.037   8.868  0.7678  2.1142  2.7483
11993SOL    HW237974   8.806   1.982   8.978 -1.7037  0.0390 -0.1141
11994SOL     OW37975   1.036   3.960   8.579 -0.3878  0.0710  0.1429
11994SOL    HW137976   0.950   3.998   8.596 -0.9388 -0.7653 -0.6620
11994SOL    HW237977   1.098   4.023   8.616 -1.3512  0.4815  1.1112
11995SOL     OW37978   4.224   1.259   0.480  0.4181 -0.3996  0.4327
11995SOL    HW137979   4.266   1.319   0.541 -0.1954 -1.1207  1.5868
11995SOL    HW237980   4.191   1.188   0.534  0.3171 -1.3292 -0.7966
11996SOL     OW37981   8.500   2.185   3.721  0.5874  0.7820  0.2376
11996SOL    HW137982   8.581   2.144   3.750  0.6479  0.9867  0.3662
11996SOL    HW237983   8.447   2.114   3.685  1.3829  0.8582 -1.1470
11997SOL     OW37984   7.520   4.261   8.431 -0.3268  0.4146  0.4999
11997SOL    HW137985   7.497   4.325   8.498  0.1616  0.5756  0.5128
11997SOL    HW237986   7.604   4.225   8.460 -0.8274 -0.5846  0.7507
11998SOL     OW37987   2.444   8.353   6.131  0.1646 -0.3919 -0.1044
11998SOL    HW137988   2.425   8.440   6.096 -0.0073  0.1084  1.1573
11998SOL    HW237989   2.473   8.370   6.221  1.9126 -1.5055 -0.4143
11999SOL     OW37990   6.828   0.014   5.830 -0.0009 -0.6747  0.5634
11999SOL    HW137991   6.867  -0.066   5.865 -0.3623 -0.3313  1.7917
11999SOL    HW237992   6.841   0.008   5.735  2.1063 -1.0485  0.8363
12000SOL     OW37993   3.241   0.255   4.441  0.2199  0.0909 -0.2653
12000SOL    HW137994   3.331   0.280   4.464 -0.2089  0.7763  0.7509
12000SOL    HW237995   3.203   0.335   4.404 -0.7171  0.5798  1.6339
12001SOL     OW37996   3.364   8.768   6.002  0.4674  0.1880  0.4801
12001SOL    HW137997   3.340   8.691   6.054 -0.3205  0.0770 -0.0300
12001SOL    HW237998   3.377   8.734   5.914 -0.5827  0.7482  0.1036
12002SOL     OW37999   8.393   6.086   4.509 -0.2697  0.1477  0.4120
12002SOL    HW138000   8.435   6.054   4.429 -1.5201  2.6129 -1.3936
12002SOL    HW238001   8.412   6.180   4.510 -2.3061  0.6165  1.6879
12003SOL     OW38002   7.169   2.276   1.278  0.0280  0.0431 -0.2924
12003SOL    HW138003   7.088   2.326   1.280  1.1846  1.9786  1.7585
12003SOL    HW238004   7.237   2.339   1.252  1.0528 -1.3432 -1.1872
12004SOL     OW38005   5.234   7.997   6.778  0.1787  0.4470 -0.3156
12004SOL    HW138006   5.287   7.934   6.728  0.0244  1.8583 -2.4014
12004SOL    HW238007   5.293   8.029   6.846  0.6580 -0.9784 -0.0121
12005SOL     OW38008   5.470   1.865   0.475  0.1730  0.7100 -0.1729
12005SOL    HW138009   5.425   1.856   0.559  0.8079 -1.2214 -0.0003
12005SOL    HW238010   5.546   1.920   0.495  0.2058  0.4346  0.4853
12006SOL     OW38011   4.660   8.386   5.338  0.0211  0.4615  0.1480
12006SOL    HW138012   4.628   8.424   5.420 -1.6618 -1.2435  0.3735
12006SOL    HW238013   4.608   8.429   5.270  0.6618  1.1028  0.0500
12007SOL     OW38014   4.238   0.751   7.918 -0.1729 -0.6167 -0.3435
12007SOL    HW138015   4.249   0.840   7.884 -0.9959 -0.8241 -1.2092
12007SOL    HW238016   4.305   0.700   7.874 -2.0830 -1.1736 -2.8941
12008SOL     OW38017   8.032   5.212   6.459  0.2658 -0.1021 -0.0098
12008SOL    HW138018   7.989   5.268   6.394 -0.3167  0.6715  0.9993
12008SOL    HW238019   8.115   5.256   6.477  0.2351 -0.0762  0.0717
12009SOL     OW38020   1.716   3.836   2.801 -0.0906  0.4715 -0.2308
12009SOL    HW138021   1.690   3.927   2.792 -0.0311  0.7852  2.1105
12009SOL    HW238022   1.653   3.800   2.864  0.8825 -0.6440  0.1321
12010SOL     OW38023   2.957   3.777   0.799  0.0382 -0.4002 -0.5920
12010SOL    HW138024   2.962   3.717   0.724 -0.8376 -1.2223 -0.0141
12010SOL    HW238025   2.866   3.806   0.799  0.3696  0.6579 -0.6433
12011SOL     OW38026   6.699   1.631   0.684  0.5948  0.3046  0.2278
12011SOL    HW138027   6.610   1.595   0.688  0.3116  0.7747 -1.0651
12011SOL    HW238028   6.752   1.560   0.650 -0.0433  1.0897 -2.7551
12012SOL     OW38029   2.983   5.174   1.167  0.5846 -0.3610 -0.0953
12012SOL    HW138030   2.888   5.159   1.164  0.3333  1.1206 -0.8330
12012SOL    HW238031   3.019   5.108   1.107  0.0493 -1.0401  0.3122
12013SOL     OW38032   8.820   2.664   0.885  0.2094 -0.4000  0.1380
12013SOL    HW138033   8.910   2.630   0.884  0.6393  0.6442  1.3237
12013SOL    HW238034   8.784   2.639   0.799  1.4880 -1.1735 -0.2014
12014SOL     OW38035   3.196   5.071   0.757  0.3108 -0.4769 -0.8787
12014SOL    HW138036   3.179   5.162   0.733  0.3804 -0.4955 -1.0001
12014SOL    HW238037   3.112   5.027   0.743 -0.1449 -0.1455  0.5951
12015SOL     OW38038   5.958   5.323   1.456  0.6859 -0.0645  0.0292
12015SOL    HW138039   5.922   5.246   1.500 -0.3586 -0.0036 -0.6715
12015SOL    HW238040   6.052   5.314   1.465  0.6469 -2.0254 -1.0046
12016SOL     OW38041   3.568   4.999   7.282  0.2232  0.0602  0.1987
12016SOL    HW138042   3.637   4.942   7.248 -0.2982 -0.4070 -0.0874
12016SOL    HW238043   3.615   5.077   7.313  0.6251  1.4167 -3.3177
12017SOL     OW38044   1.312   3.683   1.560  0.4384 -0.0777 -0.3060
12017SOL    HW138045   1.276   3.599   1.531  0.2119 -0.0782 -0.0237
12017SOL    HW238046   1.248   3.748   1.531 -0.5032 -0.1949  1.3936
12018SOL     OW38047   7.179   3.805   0.316  0.4615  0.3885 -0.2013
12018SOL    HW138048   7.158   3.891   0.278  1.2876  0.8815  0.4316
12018SOL    HW238049   7.156   3.742   0.247 -0.1029  1.1155 -0.6939
12019SOL     OW38050   2.139   7.008   6.666  0.2952 -0.6211 -0.2113
12019SOL    HW138051   2.132   7.003   6.762 -1.5643 -0.0268 -0.2669
12019SOL    HW238052   2.228   6.978   6.647  1.3232  0.8609  1.8214
12020SOL     OW38053   5.479   7.128   3.215  0.5146 -0.2862  0.2187
12020SOL    HW138054   5.428   7.147   3.136  2.1596  0.0223 -0.8369
12020SOL    HW238055   5.536   7.055   3.189  0.2146 -1.0005  1.5287
12021SOL     OW38056   7.951   4.150   1.420 -0.1537 -0.6462  0.4369
12021SOL    HW138057   8.008   4.075   1.407  0.6957  0.0866 -0.2899
12021SOL    HW238058   7.883   4.120   1.480 -1.3305 -2.7711 -1.8063
12022SOL     OW38059   8.487   3.973   7.655  0.0552 -0.6641 -0.3986
12022SOL    HW138060   8.479   3.931   7.569 -0.5931  0.5125 -0.9406
12022SOL    HW238061   8.578   4.000   7.660  0.4092 -1.8408 -0.1663
12023SOL     OW38062   3.515   7.959   7.878 -0.1285 -0.1943 -0.5594
12023SOL    HW138063   3.570   7.888   7.909  0.3446  0.6423  0.5903
12023SOL    HW238064   3.430   7.918   7.861  0.0269 -0.9718  0.4369
12024SOL     OW38065   6.953   4.085   2.626  0.3978  0.4036 -0.3790
12024SOL    HW138066   6.877   4.069   2.571 -0.2850  1.0374  0.3512
12024SOL    HW238067   6.936   4.035   2.706 -0.2241  2.0945  0.5946
12025SOL     OW38068   2.395   7.883   3.107 -0.1052  0.7231 -0.3510
12025SOL    HW138069   2.357   7.838   3.183  0.1602 -0.1089 -0.6954
12025SOL    HW238070   2.376   7.825   3.034  2.9522 -0.4085 -0.3735
12026SOL     OW38071   0.937   2.216   0.753  0.2382  0.3290  0.3066
12026SOL    HW138072   0.867   2.196   0.815 -0.8607  0.1017 -0.9696
12026SOL    HW238073   0.916   2.304   0.721 -0.9463 -0.6900 -1.9361
12027SOL     OW38074   0.161   8.365   6.389 -0.5077 -0.3353  0.5096
12027SOL    HW138075   0.242   8.335   6.346  0.0894  1.4207  0.3393
12027SOL    HW238076   0.093   8.352   6.323 -0.0234  0.0081 -0.0726
12028SOL     OW38077   4.187   6.900   0.507 -0.0916 -0.5756 -0.0917
12028SOL    HW138078   4.171   6.976   0.563 -1.5819 -1.4064  0.6794
12028SOL    HW238079   4.277   6.875   0.525 -0.0031  0.2213  0.6470
12029SOL     OW38080   5.474   3.635   5.283 -0.0922  0.0836 -0.7840
12029SOL    HW138081   5.450   3.663   5.195 -2.1011 -1.0503 -0.6420
12029SOL    HW238082   5.392   3.635   5.332  0.7438 -0.7243  0.7016
12030SOL     OW38083   2.390   3.738   5.883  0.0182  0.2640 -0.3354
12030SOL    HW138084   2.441   3.698   5.813  0.2230  0.5834 -0.3685
12030SOL    HW238085   2.409   3.831   5.876  2.0506  0.0883  1.7476
12031SOL     OW38086   8.710   3.895   1.585 -0.3644  0.5728  0.7465
12031SOL    HW138087   8.619   3.916   1.606 -1.3083 -1.0281 -1.2997
12031SOL    HW238088   8.720   3.803   1.611  0.5736  0.6404  0.6555
12032SOL     OW38089   8.495   7.935   5.069 -0.5182  0.0360  0.1480
12032SOL    HW138090   8.576   7.987   5.068  1.4793 -2.8174  1.0501
12032SOL    HW238091   8.502   7.878   4.993 -0.7521 -1.4896  1.2230
12033SOL     OW38092   0.876   6.080   6.531 -0.4729  0.3461  0.2819
12033SOL    HW138093   0.859   5.989   6.506 -1.7511  0.4707  0.6618
12033SOL    HW238094   0.831   6.091   6.614 -0.0513  1.2433  0.4005
12034SOL     OW38095   0.021   6.982   8.580  0.2735 -0.4418 -0.7533
12034SOL    HW138096  -0.031   6.918   8.628  1.7901 -1.3222 -0.2272
12034SOL    HW238097   0.004   7.065   8.626 -0.7089 -0.6876 -0.6508
12035SOL     OW38098   3.255   8.271   6.251 -0.0728 -0.2496  0.0534
12035SOL    HW138099   3.222   8.236   6.333  2.2533 -2.0413  0.3488
12035SOL    HW238100   3.224   8.211   6.184 -1.8414  1.1246 -0.4307
12036SOL     OW38101   5.625   3.737   6.825  0.2349 -0.1522 -0.7777
12036SOL    HW138102   5.688   3.800   6.792 -1.7006  2.2492 -0.1934
12036SOL    HW238103   5.653   3.719   6.915  0.4131  0.4704 -0.7035
12037SOL     OW38104   2.059   1.517   7.867  0.2144 -0.0453  0.3452
12037SOL    HW138105   2.017   1.596   7.901  1.2344 -0.0781  1.8098
12037SOL    HW238106   2.008   1.445   7.904  0.6439 -0.0703  0.9098
12038SOL     OW38107   8.311   7.641   0.518 -0.1217 -0.4060 -0.1217
12038SOL    HW138108   8.218   7.623   0.506 -0.4844  1.5345 -0.4769
12038SOL    HW238109   8.325   7.727   0.479  1.9995 -0.9794 -0.7706
12039SOL     OW38110   5.132   6.989   5.075 -0.0057 -0.2596  0.0468
12039SOL    HW138111   5.187   7.050   5.026  2.5144 -2.5618 -0.2418
12039SOL    HW238112   5.139   7.017   5.166 -1.7694  1.8871 -0.4058
12040SOL     OW38113   4.089   2.336   7.441  0.7927 -0.1709 -0.6379
12040SOL    HW138114   4.004   2.329   7.484  0.2035  0.2122 -1.7079
12040SOL    HW238115   4.149   2.362   7.510 -0.0620  0.0751  0.0235
12041SOL     OW38116   0.745   5.068   0.312  0.3686 -0.1228 -0.2752
12041SOL    HW138117   0.770   5.048   0.222  0.4280 -3.7590  0.3957
12041SOL    HW238118   0.774   4.992   0.363  1.6628  2.3968  3.1425
12042SOL     OW38119   2.944   7.886   6.270  0.2083  0.1065 -0.2834
12042SOL    HW138120   2.985   7.809   6.230  0.3166 -0.2929  0.5601
12042SOL    HW238121   2.961   7.957   6.209 -0.5608 -0.6823 -1.4759
12043SOL     OW38122   5.054   3.159   5.318  0.3503 -0.2917 -0.1341
12043SOL    HW138123   4.990   3.228   5.331  2.3706  1.9866 -1.4493
12043SOL    HW238124   5.071   3.158   5.224  0.9140 -2.1318 -0.0659
12044SOL     OW38125   4.641   5.512   0.609 -0.0355 -0.3991 -0.0237
12044SOL    HW138126   4.696   5.578   0.651 -1.1857  0.8863 -0.4602
12044SOL    HW238127   4.652   5.433   0.662  1.1347  0.2317  0.6893
12045SOL     OW38128   1.831   2.508   5.914 -0.3359 -0.3466 -0.6457
12045SOL    HW138129   1.841   2.601   5.894  1.4830 -0.4682 -0.5172
12045SOL    HW238130   1.914   2.468   5.885 -0.7121 -1.7706  0.1224
12046SOL     OW38131   4.972   3.980   5.055 -0.4553  0.7358 -0.3217
12046SOL    HW138132   4.990   4.047   4.990  0.9882  0.2144 -0.4812
12046SOL    HW238133   5.024   4.005   5.131 -0.6091  0.2855 -0.0613
12047SOL     OW38134   0.432   5.488   6.524 -0.4479  0.3060 -0.0104
12047SOL    HW138135   0.374   5.482   6.599  0.6712  1.6524  1.0158
12047SOL    HW238136   0.453   5.397   6.503 -0.7131 -0.0946  1.3561
12048SOL     OW38137   6.366   7.625   3.117 -0.4197  0.1407 -0.1557
12048SOL    HW138138   6.365   7.687   3.044 -0.0490  1.8180  1.1879
12048SOL    HW238139   6.311   7.666   3.184  1.4981  0.0800  1.5718
12049SOL     OW38140   5.848   8.074   2.674  0.2074 -0.3079 -0.0034
12049SOL    HW138141   5.823   8.022   2.750  0.0923 -1.5546 -0.8555
12049SOL    HW238142   5.787   8.148   2.674 -0.1125 -0.5641  0.8246
12050SOL     OW38143   5.159   7.384   6.484 -0.0649  0.0470  0.0614
12050SOL    HW138144   5.202   7.403   6.400  0.3545 -1.2363 -0.0454
12050SOL    HW238145   5.205   7.439   6.547 -0.0408  0.6445 -0.4633
12051SOL     OW38146   5.344   4.390   1.022  0.2876  0.0551 -0.3962
12051SOL    HW138147   5.341   4.475   0.979  1.8356  0.1479 -0.3906
12051SOL    HW238148   5.438   4.374   1.037 -0.0949 -0.6808  1.5201
12052SOL     OW38149   0.809   5.212   5.999 -0.4835 -0.2649 -0.4158
12052SOL    HW138150   0.741   5.273   6.026 -0.0368 -0.0090  0.1371
12052SOL    HW238151   0.761   5.135   5.968 -1.0648  0.5054 -1.5113
12053SOL     OW38152   0.406   7.402   0.440 -0.3370  0.3026 -0.2930
12053SOL    HW138153   0.384   7.445   0.522 -0.3918  0.3261 -0.3196
12053SOL    HW238154   0.497   7.428   0.423 -0.7673  1.4564 -0.9538
12054SOL     OW38155   2.653   2.257   5.884  0.2463  0.5755 -0.1150
12054SOL    HW138156   2.726   2.295   5.933  1.4258 -1.3122 -0.3143
12054SOL    HW238157   2.693   2.222   5.805 -0.4766 -2.1689  0.6102
12055SOL     OW38158   4.944   7.575   3.261  0.2511 -0.1474 -0.1928
12055SOL    HW138159   4.991   7.652   3.227 -0.3401  0.9783  1.3865
12055SOL    HW238160   5.001   7.541   3.330 -0.4435  0.1594  0.5369
12056SOL     OW38161   3.256   8.176   1.384  0.3783  0.0585  0.2551
12056SOL    HW138162   3.306   8.242   1.431  2.4084  0.1201 -1.8344
12056SOL    HW238163   3.281   8.187   1.293 -3.2442 -0.1607 -0.9213
12057SOL     OW38164   5.278   5.807   2.219 -0.1778  0.2855  0.4165
12057SOL    HW138165   5.203   5.846   2.264  0.0643  0.2864  0.8256
12057SOL    HW238166   5.353   5.828   2.276 -0.1357 -1.3634  1.0115
12058SOL     OW38167   1.127   7.547   0.038  0.0782 -0.2395  0.4545
12058SOL    HW138168   1.041   7.583   0.059 -0.3476  0.8623 -2.6711
12058SOL    HW238169   1.157   7.598  -0.037  2.5144 -2.0478  0.0670
12059SOL     OW38170   0.730   5.720   5.886  0.1881  0.2405  1.2088
12059SOL    HW138171   0.771   5.633   5.879  1.1022  0.6594  1.2257
12059SOL    HW238172   0.636   5.703   5.877  0.4281 -0.6454  0.1620
12060SOL     OW38173   7.450   3.235   0.971 -0.0203 -0.5198  0.4566
12060SOL    HW138174   7.462   3.324   1.004 -2.2931 -0.3190  0.9398
12060SOL    HW238175   7.450   3.180   1.049  0.3166 -0.8071  0.2562
12061SOL     OW38176   3.181   5.322   4.566 -0.3218 -0.8287 -0.2291
12061SOL    HW138177   3.157   5.253   4.628  0.6222 -0.2673  0.7970
12061SOL    HW238178   3.167   5.403   4.615  1.1568 -0.4033 -0.4626
12062SOL     OW38179   4.960   5.517   6.437  0.1121  0.3355 -0.1726
12062SOL    HW138180   4.917   5.432   6.451  0.2538  0.3263  0.2149
12062SOL    HW238181   4.926   5.547   6.353  0.0779 -0.1200 -0.3291
12063SOL     OW38182   2.112   2.676   7.817  0.1699  0.0980 -0.0793
12063SOL    HW138183   2.097   2.766   7.844  2.8755  0.3611  0.8279
12063SOL    HW238184   2.192   2.650   7.864 -0.2912 -2.6198 -0.6618
12064SOL     OW38185   7.220   5.208   5.686 -0.5677 -0.0203 -0.0356
12064SOL    HW138186   7.293   5.207   5.624 -1.4158  0.3846 -1.0873
12064SOL    HW238187   7.184   5.297   5.677 -0.9880 -0.1144  0.7048
12065SOL     OW38188   7.601   7.031   5.386 -0.2549 -0.2252 -0.4946
12065SOL    HW138189   7.684   7.053   5.343  0.7009 -2.7177 -0.1122
12065SOL    HW238190   7.595   6.936   5.378 -3.4339 -0.0891 -1.0640
12066SOL     OW38191   5.159   8.270   5.178 -0.2803  0.2367  0.6366
12066SOL    HW138192   5.079   8.279   5.229 -0.5981  0.7818  0.0484
12066SOL    HW238193   5.135   8.297   5.089 -0.6078 -3.7203 -0.6688
12067SOL     OW38194   4.386   5.003   2.482 -0.2930  0.7300 -0.0166
12067SOL    HW138195   4.477   4.982   2.500 -0.1878  1.3182  0.1421
12067SOL    HW238196   4.388   5.053   2.401 -0.7471 -1.7192 -1.6560
12068SOL     OW38197   1.649   7.109   5.689  0.4508  0.2332  0.0578
12068SOL    HW138198   1.705   7.185   5.702  0.3770  0.1708  0.7584
12068SOL    HW238199   1.629   7.110   5.595  0.3747  1.1330  0.0742
12069SOL     OW38200   1.100   5.919   0.654 -0.0882 -0.0895  0.1028
12069SOL    HW138201   1.109   6.006   0.616 -1.0734 -0.1320 -0.2551
12069SOL    HW238202   1.151   5.862   0.596 -1.8880 -0.2180 -1.4541
12070SOL     OW38203   0.130   4.518   5.404  0.4165  0.3680 -0.2795
12070SOL    HW138204   0.161   4.605   5.430 -0.6065  0.8585 -0.6233
12070SOL    HW238205   0.039   4.533   5.377 -0.0376 -0.9665  0.4618
12071SOL     OW38206   2.768   7.898   7.847  0.0366 -0.3794  0.0462
12071SOL    HW138207   2.819   7.865   7.773  3.4525  0.2592  1.8948
12071SOL    HW238208   2.738   7.819   7.892  1.9805 -0.9204  0.4912
12072SOL     OW38209   1.992   7.393   4.733 -0.4769 -0.5468 -0.2360
12072SOL    HW138210   1.910   7.417   4.691 -1.1729 -0.6126  1.0342
12072SOL    HW238211   2.002   7.455   4.805  0.5661 -0.5841 -0.3206
12073SOL     OW38212   6.602   2.175   7.835  0.1880 -0.7854  0.4245
12073SOL    HW138213   6.598   2.107   7.768 -1.4631  0.1714 -0.5176
12073SOL    HW238214   6.560   2.137   7.912 -2.9105 -0.1746 -0.8100
12074SOL     OW38215   0.865   7.683   2.911  0.6120  0.2050  0.4971
12074SOL    HW138216   0.835   7.769   2.882  1.7319  0.2775 -0.5139
12074SOL    HW238217   0.788   7.627   2.904  0.0583  0.9579  0.4620
12075SOL     OW38218   5.278   4.259   6.380 -0.1740 -0.0579 -0.1851
12075SOL    HW138219   5.355   4.231   6.429  0.5867  0.4245 -1.0637
12075SOL    HW238220   5.228   4.312   6.442 -1.5062 -2.9792  1.4241
12076SOL     OW38221   4.050   0.251   2.027  0.1058 -0.5099 -0.3714
12076SOL    HW138222   4.109   0.326   2.027 -0.8612  0.3412  2.0763
12076SOL    HW238223   3.968   0.286   1.991 -0.5535 -0.1424  1.3943
12077SOL     OW38224   0.017   1.133   6.944  0.1686 -0.1081 -0.8342
12077SOL    HW138225  -0.045   1.064   6.918 -1.7846  1.5417 -0.7987
12077SOL    HW238226   0.103   1.091   6.936 -0.9351 -2.7188 -0.2697
12078SOL     OW38227   7.767   3.066   7.855  0.2447  0.3033  0.2102
12078SOL    HW138228   7.730   3.099   7.773 -1.1185  0.5796  0.9052
12078SOL    HW238229   7.862   3.079   7.846  0.0555  0.9465 -1.0452
12079SOL     OW38230   6.591   1.858   5.976 -0.3158  0.5205 -0.1135
12079SOL    HW138231   6.624   1.772   6.002  1.1903  1.3470  0.8838
12079SOL    HW238232   6.565   1.847   5.884  2.6797 -0.3012 -0.9801
12080SOL     OW38233   0.189   2.755   2.240 -0.4046 -0.5953  0.3334
12080SOL    HW138234   0.141   2.764   2.323 -1.0458 -0.9159  0.0121
12080SOL    HW238235   0.246   2.680   2.254  0.0654 -0.1637  0.7501
12081SOL     OW38236   6.792   0.577   0.412 -0.1489 -0.0205 -0.2769
12081SOL    HW138237   6.725   0.541   0.353 -0.2094 -1.0128  0.3716
12081SOL    HW238238   6.875   0.543   0.377 -0.1786 -0.5532  0.1582
12082SOL     OW38239   3.452   4.074   3.016 -0.0760 -0.6431  0.2622
12082SOL    HW138240   3.442   4.016   2.940 -1.6414  2.3310 -2.0544
12082SOL    HW238241   3.363   4.087   3.047 -0.0417  1.8980 -0.5175
12083SOL     OW38242   6.429   6.522   1.663 -0.0907 -0.2608  0.0647
12083SOL    HW138243   6.435   6.586   1.592 -0.5217 -0.9565 -0.6120
12083SOL    HW238244   6.490   6.452   1.637  0.3116 -0.1756  0.7538
12084SOL     OW38245   4.576   1.719   3.983  0.3447  0.7508 -0.3705
12084SOL    HW138246   4.553   1.721   3.890  1.9069  1.9066 -0.7720
12084SOL    HW238247   4.653   1.776   3.990 -0.0170  1.0553  1.7126
12085SOL     OW38248   1.642   3.793   7.955 -0.3033 -0.8915 -0.1044
12085SOL    HW138249   1.636   3.820   7.863 -0.1019 -0.8180 -0.0977
12085SOL    HW238250   1.730   3.756   7.963  0.4587  0.9304  0.5312
12086SOL     OW38251   1.744   1.041   8.465  0.0173  0.0799 -0.2619
12086SOL    HW138252   1.831   1.020   8.430  0.2729  0.2944  0.2367
12086SOL    HW238253   1.756   1.124   8.510  0.1822 -1.0866  2.0353
12087SOL     OW38254   2.058   5.134   5.842  0.3592  0.6172 -0.0083
12087SOL    HW138255   2.072   5.197   5.913  0.5185  2.6252 -1.7321
12087SOL    HW238256   2.000   5.068   5.880 -1.4048  2.8065  1.3413
12088SOL     OW38257   6.468   8.685   2.255  0.6547 -0.3492 -0.6679
12088SOL    HW138258   6.429   8.603   2.283  1.0259 -0.2029  0.3232
12088SOL    HW238259   6.529   8.661   2.185  0.9066 -0.9484 -0.2468
12089SOL     OW38260   3.827   0.563   4.385  0.3920  0.2608 -0.1158
12089SOL    HW138261   3.809   0.544   4.293 -0.7681  2.2959 -0.3781
12089SOL    HW238262   3.869   0.649   4.384  0.0074  0.4934  1.2658
12090SOL     OW38263   1.415   7.891   0.370 -0.0509  0.2694 -0.6719
12090SOL    HW138264   1.428   7.800   0.342  0.3951  0.2392 -0.3812
12090SOL    HW238265   1.491   7.937   0.334  0.6013  0.2075  0.5904
12091SOL     OW38266   0.941   5.510   7.215  0.6092 -0.1313  0.5042
12091SOL    HW138267   1.001   5.551   7.278  1.4717 -0.7088  0.0838
12091SOL    HW238268   0.891   5.583   7.178  0.2763  0.2395  1.6596
12092SOL     OW38269   8.678   7.973   6.479 -0.0305 -0.1654  0.0578
12092SOL    HW138270   8.752   7.920   6.450 -1.1643 -1.9966  0.3458
12092SOL    HW238271   8.703   8.063   6.458  0.8456 -1.0171 -2.9697
12093SOL     OW38272   8.129   0.070   5.064  0.0550  0.2476 -0.1908
12093SOL    HW138273   8.213   0.115   5.065 -0.3316  1.2407  3.8339
12093SOL    HW238274   8.064   0.141   5.068 -0.9308 -0.5591 -1.1363
12094SOL     OW38275   4.221   6.992   5.524  0.3013  0.3121 -0.1689
12094SOL    HW138276   4.259   6.992   5.436  1.3914 -0.0361  0.2775
12094SOL    HW238277   4.132   6.960   5.512  0.3841  0.4275 -1.1649
12095SOL     OW38278   7.083   0.874   1.772 -0.8594  0.6004  0.3876
12095SOL    HW138279   7.163   0.851   1.725 -0.3362  0.1285  1.4743
12095SOL    HW238280   7.108   0.873   1.865 -2.4474 -0.9369  0.8497
12096SOL     OW38281   7.629   7.283   0.646 -0.4992  0.1775 -0.7993
12096SOL    HW138282   7.632   7.216   0.577  1.9278  0.7410 -1.3104
12096SOL    HW238283   7.717   7.319   0.649 -1.2183  1.9828  0.8622
12097SOL     OW38284   0.303   6.985   4.166 -0.0047 -0.9471 -0.2077
12097SOL    HW138285   0.394   6.986   4.196 -0.0426 -2.0392 -0.0179
12097SOL    HW238286   0.293   7.067   4.118  1.3932 -1.2597 -1.1130
12098SOL     OW38287   8.569   3.394   3.966  0.2197 -0.1106  0.4436
12098SOL    HW138288   8.648   3.342   3.978  1.0372  1.2932  1.4130
12098SOL    HW238289   8.503   3.350   4.019  0.4534 -1.0190  0.0060
12099SOL     OW38290   7.628   4.176   6.084  0.4940 -0.8236 -0.2472
12099SOL    HW138291   7.690   4.223   6.139 -1.7462  3.0855 -0.6976
12099SOL    HW238292   7.655   4.195   5.995 -0.9953  0.5503 -0.4428
12100SOL     OW38293   8.163   8.729   8.224 -0.7508  0.1070  0.1845
12100SOL    HW138294   8.113   8.693   8.151 -0.5871 -0.3333  0.2868
12100SOL    HW238295   8.240   8.672   8.231 -0.8939 -0.0188  0.8628
12101SOL     OW38296   7.296   3.802   5.937  0.1421  0.3987 -0.1019
12101SOL    HW138297   7.362   3.846   5.991  0.0643  1.8565 -1.1419
12101SOL    HW238298   7.301   3.845   5.852 -0.6279 -0.9852 -0.8903
12102SOL     OW38299   5.564   2.350   4.654 -0.5762  0.6785 -0.5990
12102SOL    HW138300   5.477   2.343   4.693 -0.7014 -2.9549 -1.1959
12102SOL    HW238301   5.549   2.383   4.566 -2.1947 -4.1161 -2.4523
12103SOL     OW38302   4.753   1.967   7.806 -0.3995 -0.5141  0.9494
12103SOL    HW138303   4.734   1.874   7.814  0.8155 -0.8820 -0.0544
12103SOL    HW238304   4.708   1.994   7.726 -0.3388 -0.3684  0.9642
12104SOL     OW38305   4.786   1.235   1.504 -0.6270  0.0440  0.1651
12104SOL    HW138306   4.778   1.146   1.469  0.2847 -0.1415  0.3796
12104SOL    HW238307   4.880   1.246   1.519 -0.8532  0.5625  1.3715
12105SOL     OW38308   7.375   3.126   2.300  0.4921  0.3664  0.7164
12105SOL    HW138309   7.382   3.106   2.206  2.7295 -4.3653  1.5786
12105SOL    HW238310   7.291   3.171   2.308 -1.1490 -1.4216 -3.3098
12106SOL     OW38311   4.482   6.351   1.783 -0.4642  0.0181 -0.5913
12106SOL    HW138312   4.460   6.258   1.782  1.1120 -0.3992 -0.0276
12106SOL    HW238313   4.434   6.387   1.858  0.4633 -0.7857  0.4194
12107SOL     OW38314   4.472   7.239   0.613 -0.0189 -0.6053 -0.2109
12107SOL    HW138315   4.555   7.267   0.652 -0.3210 -2.1044  1.6424
12107SOL    HW238316   4.467   7.145   0.630 -0.5549 -1.2498 -3.3077
12108SOL     OW38317   3.635   5.865   1.196 -0.2595  0.3852  0.1779
12108SOL    HW138318   3.594   5.924   1.259 -0.4313  0.1434  0.2946
12108SOL    HW238319   3.698   5.815   1.247 -0.8257 -0.2323  0.2831
12109SOL     OW38320   4.541   8.611   6.840 -0.3983 -0.7257  0.1483
12109SOL    HW138321   4.554   8.555   6.916  1.0823 -1.5276 -0.6647
12109SOL    HW238322   4.534   8.550   6.766  3.2185  0.1054 -1.0530
12110SOL     OW38323   4.399   3.015   7.113  0.7732 -0.0738 -0.4478
12110SOL    HW138324   4.344   3.093   7.105 -0.6274 -0.9791 -0.0232
12110SOL    HW238325   4.439   3.023   7.200  0.1012 -0.1472 -0.1262
12111SOL     OW38326   2.697   8.092   4.020  0.1841  0.3525  0.0578
12111SOL    HW138327   2.656   8.055   4.099 -1.0176  1.0665 -0.2074
12111SOL    HW238328   2.666   8.035   3.949  1.6158 -0.5563  0.1283
12112SOL     OW38329   7.874   6.657   2.420  0.0288 -0.6619  0.1235
12112SOL    HW138330   7.890   6.751   2.425  1.7060 -0.9367  0.3994
12112SOL    HW238331   7.832   6.645   2.334 -0.2416  0.3294  0.1037
12113SOL     OW38332   7.926   6.869   8.819  0.0919  0.7150 -0.4464
12113SOL    HW138333   7.981   6.917   8.880  0.1159  1.1237 -0.7808
12113SOL    HW238334   7.907   6.786   8.863  0.1484  0.9826  0.0880
12114SOL     OW38335   0.817   4.108   1.329  0.4304 -0.2872 -0.5009
12114SOL    HW138336   0.740   4.062   1.362  0.2325 -0.3102 -0.9889
12114SOL    HW238337   0.874   4.117   1.406 -0.7698  1.1879  0.2789
12115SOL     OW38338   1.972   0.490   0.625  0.0473 -0.7037 -0.3555
12115SOL    HW138339   2.023   0.534   0.692 -0.1175 -0.6808 -0.2452
12115SOL    HW238340   1.934   0.414   0.669 -0.5202 -0.3787 -0.2774
12116SOL     OW38341   3.593   8.181   1.847  0.2546 -0.3063 -0.0885
12116SOL    HW138342   3.635   8.198   1.931 -0.6374 -0.7123  0.4563
12116SOL    HW238343   3.660   8.201   1.782  0.9469  0.0441  0.7170
12117SOL     OW38344   4.109   3.273   3.032  0.3497  0.3915  0.3052
12117SOL    HW138345   4.111   3.276   2.936 -0.1001 -1.2484  0.2067
12117SOL    HW238346   4.050   3.343   3.057 -0.9249 -0.2626 -0.7369
12118SOL     OW38347   1.426   4.950   3.256  0.1436 -0.1126  0.4542
12118SOL    HW138348   1.450   5.040   3.282 -1.3113  0.7887 -1.1294
12118SOL    HW238349   1.427   4.952   3.160 -2.1332 -1.1401  0.3477
12119SOL     OW38350   5.370   5.154   1.166 -0.3540  0.1126  0.7725
12119SOL    HW138351   5.280   5.166   1.135 -0.2713 -0.9914  0.0446
12119SOL    HW238352   5.417   5.230   1.134 -1.1482  1.0255  1.6914
12120SOL     OW38353   2.777   5.746   2.368  0.4103 -0.0852 -0.4022
12120SOL    HW138354   2.852   5.748   2.308 -0.6485  2.4828 -1.8358
12120SOL    HW238355   2.714   5.687   2.325  0.9063 -0.8608 -0.0874
12121SOL     OW38356   0.105   7.302   8.389  0.1752  0.0211  0.0085
12121SOL    HW138357   0.132   7.334   8.475 -0.4128  1.0080 -0.1560
12121SOL    HW238358   0.010   7.290   8.396  0.2101 -0.5055 -0.3219
12122SOL     OW38359   0.601   7.734   7.055  0.0681  0.1917  0.3354
12122SOL    HW138360   0.595   7.827   7.035 -1.6740  0.4936  2.0491
12122SOL    HW238361   0.662   7.729   7.128 -1.0713  0.2005  1.3117
12123SOL     OW38362   6.302   2.249   3.668 -0.9575 -0.1719 -0.5963
12123SOL    HW138363   6.234   2.189   3.637 -0.7209  0.3506 -2.2518
12123SOL    HW238364   6.264   2.336   3.659 -0.8776  0.0113  0.6739
12124SOL     OW38365   0.472   1.954   7.813 -0.4919  0.0231 -0.2617
12124SOL    HW138366   0.385   1.968   7.776 -0.9229  1.3233  1.1148
12124SOL    HW238367   0.465   1.872   7.862 -0.1878 -1.1906 -2.1873
12125SOL     OW38368   4.463   1.105   3.372  0.3463 -0.4524 -0.1632
12125SOL    HW138369   4.448   1.103   3.467 -1.4726  0.3603 -0.3969
12125SOL    HW238370   4.459   1.014   3.345 -3.9230 -0.5124 -0.0406
12126SOL     OW38371   0.631   3.175   8.064  0.3158 -0.1548  0.4753
12126SOL    HW138372   0.650   3.260   8.103 -1.3398  0.4530  0.0283
12126SOL    HW238373   0.647   3.187   7.970  0.6149 -0.4987  0.4800
12127SOL     OW38374   0.270   7.572   1.599 -0.9165 -0.7455  0.4913
12127SOL    HW138375   0.335   7.547   1.665  1.2952 -0.9125 -1.5940
12127SOL    HW238376   0.288   7.665   1.581 -1.1953 -0.8022 -0.1256
12128SOL     OW38377   8.571   2.100   1.361  0.2900  0.1473  0.2023
12128SOL    HW138378   8.561   2.169   1.427  2.4245  2.2826 -1.5017
12128SOL    HW238379   8.508   2.123   1.293  1.5134  0.9187 -0.7056
12129SOL     OW38380   0.636   3.816   7.803  0.2925  0.6248 -0.0721
12129SOL    HW138381   0.695   3.800   7.729 -0.2583  2.6056 -1.0151
12129SOL    HW238382   0.548   3.804   7.766  0.0407  0.2740  0.6358
12130SOL     OW38383   0.664   7.151   6.205  0.1662  0.2973  0.1813
12130SOL    HW138384   0.668   7.063   6.242  0.2113 -0.0082 -0.5340
12130SOL    HW238385   0.610   7.142   6.127  1.8592  0.4622 -1.0671
12131SOL     OW38386   1.532   8.564   6.587  0.2888 -0.1939  0.0927
12131SOL    HW138387   1.489   8.649   6.575  1.4736  0.2569 -1.1636
12131SOL    HW238388   1.624   8.586   6.602  0.3187 -1.1990  1.5340
12132SOL     OW38389   1.546   0.316   4.741  0.2070 -0.2110 -0.1028
12132SOL    HW138390   1.574   0.378   4.808 -1.0735  0.2105  0.0712
12132SOL    HW238391   1.593   0.235   4.762 -0.1380 -0.0722  1.2817
12133SOL     OW38392   0.903   7.981   2.846 -0.3230  0.8585  0.2180
12133SOL    HW138393   0.983   8.016   2.885  0.6556 -0.2912 -0.7043
12133SOL    HW238394   0.876   8.049   2.784  2.5593 -0.5066 -2.8997
12134SOL     OW38395   5.198   0.870   3.688 -0.0121  0.3393 -0.5050
12134SOL    HW138396   5.193   0.866   3.592  0.9069  0.9125 -0.5940
12134SOL    HW238397   5.214   0.962   3.707  1.6676 -0.0318  0.0678
12135SOL     OW38398   1.759   0.982   0.359  0.2647  0.1215  0.5559
12135SOL    HW138399   1.667   0.979   0.335  0.7536  1.5788 -1.9292
12135SOL    HW238400   1.802   0.919   0.301  0.9801  0.4197  0.7418
12136SOL     OW38401   3.138   5.668   8.450 -0.5718  0.0768  0.2185
12136SOL    HW138402   3.069   5.616   8.491  0.2984 -1.3226 -0.0411
12136SOL    HW238403   3.192   5.605   8.403 -0.4253  1.4269 -1.5112
12137SOL     OW38404   0.905   1.464   7.040  0.1030 -0.1402  0.0938
12137SOL    HW138405   0.818   1.503   7.035  0.9718  2.1503  1.5338
12137SOL    HW238406   0.908   1.421   7.126  0.5628  0.2481  0.2764
12138SOL     OW38407   0.249   7.712   0.575 -0.0160  0.7277  0.1622
12138SOL    HW138408   0.313   7.678   0.638  0.4909  1.1040 -0.1455
12138SOL    HW238409   0.190   7.766   0.627 -0.3143  0.0814  0.5108
12139SOL     OW38410   0.019   0.026   8.486  0.3733 -0.1173  0.4351
12139SOL    HW138411  -0.044  -0.004   8.551  0.0962  2.1161  1.2764
12139SOL    HW238412  -0.031   0.081   8.427  1.0497 -0.4068 -0.4340
12140SOL     OW38413   3.217   0.973   7.172  0.3643 -0.1667 -0.1749
12140SOL    HW138414   3.281   0.995   7.103 -0.2392 -1.7728 -1.3099
12140SOL    HW238415   3.209   0.878   7.167 -0.7551 -0.1689  1.2066
12141SOL     OW38416   6.427   0.604   6.550 -0.1092 -0.0711  0.3895
12141SOL    HW138417   6.349   0.579   6.500 -0.5718  0.6711  0.7265
12141SOL    HW238418   6.479   0.656   6.488  0.8589 -1.7895 -0.3152
12142SOL     OW38419   2.832   7.409   2.949 -0.3053 -0.0250 -0.1027
12142SOL    HW138420   2.775   7.481   2.920 -0.2300  0.3459  0.6223
12142SOL    HW238421   2.793   7.381   3.032 -1.1142 -1.7289 -1.0126
12143SOL     OW38422   1.963   4.517   6.097  0.2431 -0.2166  0.1646
12143SOL    HW138423   1.871   4.494   6.087 -0.3140  1.3819  1.1903
12143SOL    HW238424   1.966   4.571   6.177  2.0043  0.0757 -0.0509
12144SOL     OW38425   5.350   0.474   3.864 -0.2802 -0.0497 -0.1810
12144SOL    HW138426   5.369   0.553   3.814 -0.7047 -0.7676 -1.5294
12144SOL    HW238427   5.435   0.442   3.893 -0.0585  0.5623 -0.1524
12145SOL     OW38428   2.735   1.614   5.526 -0.7542  0.2745 -0.2731
12145SOL    HW138429   2.648   1.649   5.545 -0.6715  1.5122 -1.9893
12145SOL    HW238430   2.758   1.651   5.442  0.8722 -1.1493 -0.5123
12146SOL     OW38431   3.047   1.168   8.110  0.0857 -0.1889  0.2315
12146SOL    HW138432   3.125   1.224   8.110 -0.0628  0.0280  0.6424
12146SOL    HW238433   3.079   1.082   8.139  0.7967 -1.0655 -2.8581
12147SOL     OW38434   1.714   1.083   2.107  0.3956  0.0800 -0.0863
12147SOL    HW138435   1.788   1.142   2.092  0.4937 -0.0534 -0.1285
12147SOL    HW238436   1.745   1.022   2.173 -0.2195  1.0033  1.1087
12148SOL     OW38437   5.933   7.022   0.952  1.1821 -0.3510 -0.3703
12148SOL    HW138438   5.893   7.076   0.883  2.8811  0.9562 -0.4023
12148SOL    HW238439   5.861   7.005   1.013  0.0053 -0.2237 -1.6581
12149SOL     OW38440   7.175   5.092   6.774  0.0789  0.1365 -0.1885
12149SOL    HW138441   7.268   5.082   6.794  0.1096 -0.1132 -0.4573
12149SOL    HW238442   7.145   5.004   6.753 -0.7435 -0.2004  2.1077
12150SOL     OW38443   0.271   8.708   7.440 -0.2284 -0.2035  0.1350
12150SOL    HW138444   0.217   8.785   7.424 -0.7108 -0.8171 -1.4180
12150SOL    HW238445   0.216   8.651   7.494 -0.1968  0.1701  0.5670
12151SOL     OW38446   6.100   0.872   2.669 -0.1346 -0.4287 -0.1604
12151SOL    HW138447   6.056   0.902   2.748  0.4916 -0.6587  0.2836
12151SOL    HW238448   6.038   0.812   2.628 -0.8922  0.5019 -0.4096
12152SOL     OW38449   4.126   8.063   6.010  0.0857 -0.1199  0.3500
12152SOL    HW138450   4.151   8.045   6.101  2.8299  0.1672 -0.2587
12152SOL    HW238451   4.107   7.977   5.973 -2.3917 -0.1441  1.4448
12153SOL     OW38452   8.584   0.210   2.750 -0.0684  0.2407  0.7211
12153SOL    HW138453   8.587   0.204   2.655 -1.5724  2.0966  0.4942
12153SOL    HW238454   8.561   0.301   2.767 -0.9202 -0.3211  2.8391
12154SOL     OW38455   4.935   2.860   3.374  0.2433 -0.1433  0.6494
12154SOL    HW138456   5.011   2.870   3.431  1.1391 -1.6412 -0.2189
12154SOL    HW238457   4.957   2.909   3.295  1.6181 -2.8223 -0.7619
12155SOL     OW38458   5.192   7.455   7.603 -0.1511 -0.1555 -0.1812
12155SOL    HW138459   5.237   7.449   7.519  0.7592 -0.6841  0.3181
12155SOL    HW238460   5.237   7.527   7.649 -0.4770 -0.0345 -0.0460
12156SOL     OW38461   2.428   2.930   8.645 -0.5848 -0.8678  0.3526
12156SOL    HW138462   2.498   2.878   8.684 -1.3343 -3.8998 -1.9521
12156SOL    HW238463   2.472   2.983   8.578 -0.3130 -1.8805 -0.2871
12157SOL     OW38464   6.485   2.897   8.352 -0.2592  0.3792  0.0195
12157SOL    HW138465   6.489   2.808   8.317 -0.3434  0.0260  0.8760
12157SOL    HW238466   6.492   2.886   8.447  1.1581  1.3867  0.0736
12158SOL     OW38467   2.465   7.894   7.933  0.8260 -0.6103  0.2841
12158SOL    HW138468   2.492   7.802   7.923  2.4455 -0.1879  0.5273
12158SOL    HW238469   2.420   7.897   8.017  0.2629 -1.2835  0.0169
12159SOL     OW38470   4.233   0.355   0.867 -0.3428 -0.0590 -0.1249
12159SOL    HW138471   4.191   0.429   0.824 -1.0978 -0.9835 -1.0073
12159SOL    HW238472   4.205   0.361   0.958  2.1802  2.5781  0.6372
12160SOL     OW38473   3.781   7.196   3.113  0.0150 -0.0847  0.5714
12160SOL    HW138474   3.728   7.169   3.037  0.3916 -1.0278  0.6278
12160SOL    HW238475   3.738   7.275   3.145 -0.5244 -0.0296 -0.2440
12161SOL     OW38476   6.128   8.220   8.540  0.1398 -0.5229 -0.1363
12161SOL    HW138477   6.098   8.132   8.565 -0.0292 -1.0677 -2.1158
12161SOL    HW238478   6.048   8.272   8.533  0.3257  0.2385  2.4083
12162SOL     OW38479   7.489   4.350   2.433 -0.1464  0.2515  0.0072
12162SOL    HW138480   7.564   4.410   2.437 -1.3352  1.7489  1.4048
12162SOL    HW238481   7.522   4.273   2.388  2.3769  0.6558  0.9994
12163SOL     OW38482   0.480   7.813   0.880  0.4682  0.4810 -0.0492
12163SOL    HW138483   0.502   7.833   0.971  1.6703  1.3483 -0.5113
12163SOL    HW238484   0.448   7.896   0.844 -2.5492 -0.4454  0.2541
12164SOL     OW38485   3.476   2.608   6.885 -0.3686 -0.6202  0.4325
12164SOL    HW138486   3.501   2.667   6.956 -1.8875  0.0585  0.4422
12164SOL    HW238487   3.497   2.656   6.805 -1.8951  0.1045  0.4393
12165SOL     OW38488   0.713   1.206   1.579 -0.1947  0.0434  0.2155
12165SOL    HW138489   0.739   1.258   1.503 -0.6076 -0.8276 -0.5319
12165SOL    HW238490   0.621   1.227   1.593 -0.8868 -1.8094 -1.2183
12166SOL     OW38491   8.336   2.387   0.097  0.5678  0.1959  0.1595
12166SOL    HW138492   8.277   2.319   0.131 -0.3687  0.7717 -0.2746
12166SOL    HW238493   8.346   2.448   0.170  0.4010  0.2416  0.1451
12167SOL     OW38494   4.418   5.985   6.292  0.4630  0.4634 -0.1246
12167SOL    HW138495   4.364   6.013   6.366 -0.0684  0.2828 -0.4376
12167SOL    HW238496   4.408   6.054   6.227  1.0105  0.6697  0.0098
12168SOL     OW38497   0.531   6.844   3.293  0.1593  0.0472 -0.3136
12168SOL    HW138498   0.488   6.925   3.265  1.2956  0.6186 -0.4558
12168SOL    HW238499   0.469   6.775   3.269 -1.1595  0.9114  0.4970
12169SOL     OW38500   3.718   8.453   4.243  0.3983 -0.0480  0.4574
12169SOL    HW138501   3.696   8.544   4.260  2.0443  0.4211  0.2266
12169SOL    HW238502   3.807   8.455   4.208  0.6480 -1.7781  0.8629
12170SOL     OW38503   2.961   7.901   3.355  0.5485 -0.0174 -0.3598
12170SOL    HW138504   2.877   7.882   3.397 -0.5919  2.7173 -1.1602
12170SOL    HW238505   2.951   7.869   3.266  0.2203  0.5320 -0.5276
12171SOL     OW38506   1.763   3.616   7.196  0.0201 -0.3156  0.5204
12171SOL    HW138507   1.748   3.565   7.275  1.8710  2.3062  2.7393
12171SOL    HW238508   1.856   3.605   7.177 -0.3801 -0.8935 -1.3611
12172SOL     OW38509   3.912   6.057   0.758  0.0988 -0.0546  0.2629
12172SOL    HW138510   3.888   6.007   0.836 -1.1640 -1.0854 -0.7464
12172SOL    HW238511   3.879   6.145   0.774 -3.7668 -1.1703 -0.6488
12173SOL     OW38512   5.177   0.707   0.629 -0.7919  0.6347 -0.1420
12173SOL    HW138513   5.122   0.775   0.667 -1.9867  0.0763 -0.8044
12173SOL    HW238514   5.118   0.656   0.574  0.1329 -0.7523  0.0854
12174SOL     OW38515   6.347   4.800   1.166 -0.2091 -0.3437 -0.1567
12174SOL    HW138516   6.282   4.784   1.234 -0.2083 -0.5224 -0.1966
12174SOL    HW238517   6.417   4.737   1.184 -0.5354 -0.8908 -0.7429
12175SOL     OW38518   2.551   3.992   7.663 -0.5551  0.2005  0.1029
12175SOL    HW138519   2.559   3.925   7.730  0.4502  0.2338  0.0407
12175SOL    HW238520   2.632   4.044   7.671  0.0600 -0.3799 -1.7461
12176SOL     OW38521   4.702   4.518   0.394  0.3923 -0.0280  0.3424
12176SOL    HW138522   4.730   4.493   0.306  0.3900 -1.3461  0.6996
12176SOL    HW238523   4.680   4.611   0.387  2.7495  0.5315 -0.4586
12177SOL     OW38524   7.370   6.712   7.209  0.1385 -0.4578 -0.4286
12177SOL    HW138525   7.296   6.767   7.233  0.5744 -0.0873  0.0797
12177SOL    HW238526   7.448   6.763   7.232  0.5546 -1.4724  0.5379
12178SOL     OW38527   6.703   5.741   5.423  0.1989  0.2861  0.1005
12178SOL    HW138528   6.723   5.804   5.493 -0.1052  1.2115 -0.6294
12178SOL    HW238529   6.774   5.752   5.360  0.1892 -0.1751  0.0027
12179SOL     OW38530   7.507   4.653   3.466  0.8005 -0.5101 -0.1465
12179SOL    HW138531   7.498   4.670   3.372  1.5578 -1.6849 -0.4653
12179SOL    HW238532   7.418   4.642   3.497  0.5220  0.1930 -0.6581
12180SOL     OW38533   5.863   4.198   3.164  0.2090 -0.4522  0.0932
12180SOL    HW138534   5.873   4.152   3.081  0.0655 -0.5287  0.1201
12180SOL    HW238535   5.910   4.144   3.228  0.7691 -0.1283 -0.0347
12181SOL     OW38536   6.894   0.862   8.530 -0.2609 -0.0613  0.3973
12181SOL    HW138537   6.877   0.949   8.494  0.0689 -0.3189 -0.3963
12181SOL    HW238538   6.809   0.830   8.558 -0.4066  0.4588  0.5590
12182SOL     OW38539   7.386   1.741   5.753 -0.0067 -0.1904 -0.3153
12182SOL    HW138540   7.298   1.721   5.785 -0.5122 -0.0811 -1.5823
12182SOL    HW238541   7.376   1.824   5.705  0.8284 -0.0641 -0.2874
12183SOL     OW38542   8.456   6.306   4.740 -0.7666  0.1154 -0.0966
12183SOL    HW138543   8.510   6.385   4.736  0.0790 -0.2799  2.0811
12183SOL    HW238544   8.509   6.243   4.789 -0.6962 -2.4600 -3.1240
12184SOL     OW38545   8.464   0.323   0.811  0.1759  0.2299  0.0353
12184SOL    HW138546   8.371   0.329   0.836  0.2645 -0.3037  0.5221
12184SOL    HW238547   8.501   0.407   0.836 -0.3533  0.7535 -0.9205
12185SOL     OW38548   5.940   2.006   4.819  0.3199 -0.3527  0.0268
12185SOL    HW138549   5.964   2.022   4.910 -0.0275 -1.2515  0.2831
12185SOL    HW238550   5.868   2.067   4.803  0.1549 -0.4338  0.4524
12186SOL     OW38551   1.920   6.876   4.023  0.3342 -0.4908  0.5292
12186SOL    HW138552   1.859   6.820   4.071  0.1690 -0.4113  0.4133
12186SOL    HW238553   1.868   6.953   3.999  1.0511  0.6481  2.4008
12187SOL     OW38554   8.013   4.388   1.528 -0.0882 -0.2100 -0.4226
12187SOL    HW138555   8.018   4.305   1.481 -0.4016 -0.4289 -0.0775
12187SOL    HW238556   7.920   4.411   1.527  0.0612  0.3959 -0.9537
12188SOL     OW38557   2.236   8.544   5.482  0.1527 -0.1234  0.2857
12188SOL    HW138558   2.201   8.610   5.422  1.7918  0.5976  0.0375
12188SOL    HW238559   2.299   8.495   5.429  0.4404 -0.5421  1.0062
12189SOL     OW38560   7.835   2.472   5.839 -0.5669  0.6092  0.4011
12189SOL    HW138561   7.773   2.531   5.881 -0.8654  0.8841 -0.4125
12189SOL    HW238562   7.846   2.507   5.750 -0.6219 -0.4509 -0.0436
12190SOL     OW38563   8.360   3.783   7.173 -0.2840  0.3349  0.2947
12190SOL    HW138564   8.417   3.839   7.119  0.1085  0.3029  0.6751
12190SOL    HW238565   8.364   3.697   7.130  0.4644  0.1711  0.6880
12191SOL     OW38566   7.066   3.927   2.841  0.0795 -0.3530  0.0150
12191SOL    HW138567   7.126   3.977   2.787 -0.7052 -0.2668 -0.8033
12191SOL    HW238568   7.121   3.863   2.887  0.9703  0.6970  0.4355
12192SOL     OW38569   2.374   3.840   0.324 -0.7470  0.5713 -0.1902
12192SOL    HW138570   2.455   3.847   0.273 -0.6328 -0.7547 -0.2166
12192SOL    HW238571   2.394   3.776   0.392 -1.8956 -0.1154 -0.4682
12193SOL     OW38572   0.718   2.118   0.906  0.0353  0.3692 -0.1259
12193SOL    HW138573   0.701   2.033   0.945  0.0206  1.4670  2.4529
12193SOL    HW238574   0.652   2.126   0.837 -0.0380 -1.6125 -0.3457
12194SOL     OW38575   4.868   5.639   6.207 -0.0210 -0.3073  0.2577
12194SOL    HW138576   4.777   5.646   6.178 -0.2376 -0.9464  0.7560
12194SOL    HW238577   4.916   5.609   6.129 -0.1358  0.5620 -0.1555
12195SOL     OW38578   0.445   0.381   6.454  0.1888 -0.4538 -0.3216
12195SOL    HW138579   0.371   0.392   6.514  0.3678 -0.7661 -0.0423
12195SOL    HW238580   0.507   0.449   6.479  0.0345 -0.2454 -0.5009
12196SOL     OW38581   8.028   6.265   3.230  0.3890 -0.2939 -0.0260
12196SOL    HW138582   8.021   6.358   3.212 -2.0274 -0.4385 -0.0594
12196SOL    HW238583   8.063   6.228   3.149 -2.6713  0.1170 -1.6796
12197SOL     OW38584   0.582   1.246   0.130  0.1517 -0.0059 -0.3822
12197SOL    HW138585   0.486   1.250   0.128  0.0860  2.3909  1.6722
12197SOL    HW238586   0.609   1.338   0.134  2.5138 -0.6575 -0.3334
12198SOL     OW38587   3.220   7.648   7.061 -0.5234 -0.7364  0.4166
12198SOL    HW138588   3.194   7.575   7.116 -1.2619 -0.2489  0.7233
12198SOL    HW238589   3.227   7.611   6.973 -1.4748 -1.0469  0.4679
12199SOL     OW38590   2.199   7.349   0.029 -0.4037 -0.5778 -0.2273
12199SOL    HW138591   2.295   7.351   0.022 -0.2118 -2.1664  1.4534
12199SOL    HW238592   2.171   7.432  -0.011  1.6199 -0.2998 -1.1987
12200SOL     OW38593   8.596   5.458   4.032 -0.2094  0.1292  0.2128
12200SOL    HW138594   8.641   5.473   4.115 -0.7439 -1.1831  0.7767
12200SOL    HW238595   8.546   5.377   4.046 -1.6440  0.7765 -0.8254
12201SOL     OW38596   1.265   1.686   0.802 -0.0490  0.3337  0.1414
12201SOL    HW138597   1.274   1.781   0.812  0.8238  0.3053 -0.2651
12201SOL    HW238598   1.205   1.676   0.729 -1.7989  0.5494  1.4849
12202SOL     OW38599   7.162   1.967   6.052  1.3105 -0.4343 -0.4041
12202SOL    HW138600   7.213   1.975   5.972 -1.2127 -1.1181 -2.2102
12202SOL    HW238601   7.087   2.024   6.038  0.3539 -1.2560  1.0847
12203SOL     OW38602   3.917   7.126   5.337  0.0193 -0.2818 -0.0508
12203SOL    HW138603   3.969   7.170   5.404 -1.0164 -0.4524  0.8852
12203SOL    HW238604   3.929   7.033   5.356 -0.0811 -0.3354 -0.2558
12204SOL     OW38605   4.868   2.716   7.560 -0.0448 -0.2974 -0.2147
12204SOL    HW138606   4.852   2.800   7.517 -1.1279 -0.4792 -0.2096
12204SOL    HW238607   4.951   2.727   7.606 -1.6241  1.8454  2.3757
12205SOL     OW38608   2.676   2.932   4.459  0.3383 -0.1347  0.0815
12205SOL    HW138609   2.602   2.898   4.509 -1.3693  0.7351 -1.7202
12205SOL    HW238610   2.749   2.931   4.521 -1.7418  1.4002  2.8029
12206SOL     OW38611   5.320   0.137   8.743 -0.0111 -1.2939 -0.4022
12206SOL    HW138612   5.314   0.196   8.668 -3.2250  0.7241  1.2148
12206SOL    HW238613   5.231   0.105   8.757  0.2167 -0.8550  2.9930
12207SOL     OW38614   4.044   3.174   6.633 -0.1798 -0.0526  0.1287
12207SOL    HW138615   3.987   3.162   6.709 -1.2354  1.3883 -0.3874
12207SOL    HW238616   4.013   3.255   6.592  0.3296 -0.8070 -1.8748
12208SOL     OW38617   1.133   7.133   8.457  0.2940  0.1366  0.0780
12208SOL    HW138618   1.085   7.214   8.441  2.2568  0.9380 -2.3730
12208SOL    HW238619   1.078   7.085   8.519 -3.0688  1.4860 -1.5740
12209SOL     OW38620   6.610   8.579   3.424 -0.0836  0.4915  0.5393
12209SOL    HW138621   6.640   8.490   3.439 -2.0400 -0.3032  0.0441
12209SOL    HW238622   6.596   8.615   3.512 -1.1153 -0.3777  0.7468
12210SOL     OW38623   5.971   2.072   8.191 -0.4691 -0.6368  0.0955
12210SOL    HW138624   5.985   2.074   8.096 -1.9271  0.8493 -0.1394
12210SOL    HW238625   5.968   2.164   8.217 -0.3378 -1.0192  1.5464
12211SOL     OW38626   2.364   5.973   7.993 -0.0446 -0.0460  0.1835
12211SOL    HW138627   2.385   5.953   8.085 -0.6853  1.1419  0.6164
12211SOL    HW238628   2.396   5.898   7.944  0.0877 -0.8184  1.4133
12212SOL     OW38629   1.002   3.858   1.827  0.2722  0.0984 -0.4688
12212SOL    HW138630   0.983   3.933   1.770  2.7191  0.6099 -0.6939
12212SOL    HW238631   1.048   3.796   1.770 -0.6298 -1.0678  0.0293
12213SOL     OW38632   1.146   8.463   2.749 -0.2722  0.3457 -0.1039
12213SOL    HW138633   1.173   8.371   2.753 -1.3905  0.0020 -0.2603
12213SOL    HW238634   1.134   8.480   2.655 -0.0679  0.6577 -0.0756
12214SOL     OW38635   1.392   8.820   6.504 -0.0898 -0.1040  0.2920
12214SOL    HW138636   1.360   8.738   6.467  0.8142 -0.6836  0.7802
12214SOL    HW238637   1.312   8.869   6.525 -0.6298 -0.7551 -0.2044
12215SOL     OW38638   0.498   7.179   5.994  0.3841 -0.4984  0.3832
12215SOL    HW138639   0.518   7.273   5.998 -3.0244  0.4428 -1.5825
12215SOL    HW238640   0.420   7.168   6.048  0.5104 -2.1768  0.2941
12216SOL     OW38641   1.451   6.173   5.044 -0.3802 -0.5947  0.8296
12216SOL    HW138642   1.433   6.107   4.977 -1.2257  0.8116 -0.3824
12216SOL    HW238643   1.547   6.173   5.052 -0.3743 -2.2091  1.1550
12217SOL     OW38644   2.010   7.027   0.426  0.2679  0.1563 -0.4007
12217SOL    HW138645   2.072   7.093   0.458  1.1520 -0.3137 -1.0932
12217SOL    HW238646   2.006   7.043   0.331  2.2139 -2.1126 -0.9706
12218SOL     OW38647   1.421   1.806   3.495 -0.0376 -0.3924 -0.5439
12218SOL    HW138648   1.455   1.757   3.570 -0.2531  0.6332  0.2595
12218SOL    HW238649   1.375   1.880   3.534  1.0030  0.9411 -1.7025
12219SOL     OW38650   5.979   8.529   8.280  0.0952 -0.0269  0.1013
12219SOL    HW138651   5.968   8.445   8.325  0.5931 -0.1133  0.0728
12219SOL    HW238652   5.924   8.590   8.329 -0.7214 -0.4900 -0.2275
12220SOL     OW38653   5.338   0.110   7.912 -0.2626 -0.3489  0.0908
12220SOL    HW138654   5.254   0.148   7.888 -0.3625 -0.9291 -0.4966
12220SOL    HW238655   5.401   0.152   7.854 -0.2615 -0.4994 -0.0175
12221SOL     OW38656   0.314   7.526   2.609  0.1996  0.0937 -0.3920
12221SOL    HW138657   0.278   7.591   2.548  0.9002  0.8772  0.0097
12221SOL    HW238658   0.323   7.573   2.692  4.3808  0.7535 -0.9855
12222SOL     OW38659   1.939   5.553   3.822 -0.6688  0.3382 -0.0350
12222SOL    HW138660   1.896   5.638   3.811 -0.7802  0.2539 -0.2690
12222SOL    HW238661   1.991   5.542   3.742  0.5623  0.8774  0.6637
12223SOL     OW38662   0.487   7.071   0.460 -0.4672  0.2681  0.0589
12223SOL    HW138663   0.393   7.087   0.450 -0.3711  1.8921  1.2620
12223SOL    HW238664   0.523   7.086   0.373 -0.9344  3.2274  0.2526
12224SOL     OW38665   1.107   6.898   4.008  0.2845  0.4676 -0.2051
12224SOL    HW138666   1.191   6.861   4.037 -0.4707 -0.2124  1.1887
12224SOL    HW238667   1.130   6.984   3.973  1.7333 -0.2259 -1.0578
12225SOL     OW38668   0.887   0.945   2.829  0.1294  0.1238 -0.1785
12225SOL    HW138669   0.904   0.943   2.923 -0.6092  0.5600 -0.0185
12225SOL    HW238670   0.929   1.025   2.798  0.1412  0.1234 -0.1631
12226SOL     OW38671   1.427   2.528   3.559 -0.0952  0.1273 -0.2923
12226SOL    HW138672   1.508   2.483   3.583  1.4664  4.0503  3.0837
12226SOL    HW238673   1.448   2.572   3.477  0.4506 -0.4628 -0.4817
12227SOL     OW38674   8.754   3.527   7.516  0.0660 -0.0337 -0.0607
12227SOL    HW138675   8.762   3.559   7.605  1.7252  0.8886 -0.5075
12227SOL    HW238676   8.840   3.490   7.495 -1.0775 -2.7743 -0.3683
12228SOL     OW38677   0.748   1.543   3.510 -0.2000  0.3001  0.2432
12228SOL    HW138678   0.785   1.512   3.427  0.0614  0.1180  0.4270
12228SOL    HW238679   0.792   1.491   3.577  0.6507  1.4488  0.5967
12229SOL     OW38680   0.791   5.831   3.517 -0.2484 -0.1506 -0.2944
12229SOL    HW138681   0.718   5.834   3.455 -1.0499 -0.5223  0.5925
12229SOL    HW238682   0.847   5.904   3.492 -0.5890 -0.2485 -1.3997
12230SOL     OW38683   2.851   1.471   5.898  0.1704  0.7088 -0.0257
12230SOL    HW138684   2.765   1.497   5.930 -0.0877  1.3723 -1.1950
12230SOL    HW238685   2.834   1.395   5.842  0.5956 -0.3378  1.2030
12231SOL     OW38686   0.140   1.301   4.513  0.1850 -0.6331 -0.4197
12231SOL    HW138687   0.096   1.342   4.587  2.4975 -0.4722  0.9457
12231SOL    HW238688   0.209   1.248   4.552 -0.2335 -2.7844 -2.3499
12232SOL     OW38689   8.177   0.575   3.715  0.2455 -0.0748  0.0104
12232SOL    HW138690   8.188   0.656   3.765 -0.7052 -0.0189  0.1406
12232SOL    HW238691   8.265   0.556   3.682  0.6554  0.5248  0.7186
12233SOL     OW38692   6.123   5.816   5.840  0.1195 -0.0287  0.2643
12233SOL    HW138693   6.069   5.843   5.914 -3.1084  0.0129 -1.9089
12233SOL    HW238694   6.093   5.727   5.820 -0.0923  0.4502 -1.7489
12234SOL     OW38695   4.865   5.946   6.712 -0.0130  0.4306 -0.0246
12234SOL    HW138696   4.820   5.910   6.789 -1.6597 -0.7176 -1.4352
12234SOL    HW238697   4.935   6.000   6.748 -0.7293 -0.0566  2.2707
12235SOL     OW38698   7.164   7.768   3.408 -0.0482 -0.1587 -0.4934
12235SOL    HW138699   7.191   7.688   3.362  1.9127 -0.3407  0.8307
12235SOL    HW238700   7.150   7.740   3.498 -1.3567  0.6458 -0.4278
12236SOL     OW38701   8.362   2.304   6.483  1.0689 -0.1342  0.3880
12236SOL    HW138702   8.403   2.241   6.542 -0.0810 -0.9798  0.3077
12236SOL    HW238703   8.368   2.263   6.397 -0.2612 -0.4419  0.4265
12237SOL     OW38704   8.761   5.100   4.040 -0.2799 -0.2303 -0.2614
12237SOL    HW138705   8.735   5.081   4.130  0.2341  2.1181  0.4509
12237SOL    HW238706   8.684   5.142   4.001 -0.3458 -0.8258 -0.7986
12238SOL     OW38707   8.624   3.555   2.083  0.2112  0.1872  0.2930
12238SOL    HW138708   8.595   3.479   2.032 -2.0453  0.8240  0.5180
12238SOL    HW238709   8.714   3.571   2.054  0.1744 -1.5675 -0.9322
12239SOL     OW38710   8.379   4.683   3.270 -0.3713  0.3200  0.1832
12239SOL    HW138711   8.445   4.726   3.323 -0.5425  0.9154 -0.0761
12239SOL    HW238712   8.373   4.594   3.306 -2.0078  1.3057  2.5696
12240SOL     OW38713   6.148   2.486   3.674  0.9487  0.4711 -0.5640
12240SOL    HW138714   6.155   2.559   3.613 -1.2946 -0.9962 -2.7653
12240SOL    HW238715   6.063   2.496   3.715  0.1303 -1.3820 -1.6846
12241SOL     OW38716   8.154   3.262   2.728 -0.1400  0.1750  0.2876
12241SOL    HW138717   8.238   3.303   2.751  0.2236 -1.0652  1.2882
12241SOL    HW238718   8.115   3.322   2.664  3.1827 -0.9259 -3.2087
12242SOL     OW38719   7.401   0.556   6.745 -0.2807  0.1429  0.3759
12242SOL    HW138720   7.350   0.497   6.690 -2.5987  2.2490  0.0933
12242SOL    HW238721   7.388   0.522   6.834 -0.9145 -0.2297  0.1488
12243SOL     OW38722   2.981   0.343   8.423  0.1321 -0.3307 -0.4935
12243SOL    HW138723   2.956   0.434   8.409  0.5124  0.1461  1.6063
12243SOL    HW238724   3.064   0.333   8.376  0.4255  0.6044 -0.1855
12244SOL     OW38725   6.719   3.086   0.857  0.4324  0.1375  0.1186
12244SOL    HW138726   6.730   3.152   0.788  0.3976 -0.2692 -0.2863
12244SOL    HW238727   6.725   3.002   0.810  0.8942 -0.1521  0.6886
12245SOL     OW38728   5.881   4.821   3.862  0.1648  0.2941 -1.2100
12245SOL    HW138729   5.933   4.887   3.908  1.1885 -0.3987 -1.3436
12245SOL    HW238730   5.807   4.869   3.826 -0.5355  0.9229  0.9229
12246SOL     OW38731   4.797   8.294   0.782 -0.0828 -0.0190  0.2530
12246SOL    HW138732   4.762   8.271   0.868 -1.5211 -0.2018 -0.3518
12246SOL    HW238733   4.817   8.209   0.741 -0.0609  0.0441  0.1328
12247SOL     OW38734   2.968   1.208   6.709  0.1728 -0.6522  0.1623
12247SOL    HW138735   2.979   1.303   6.707  0.0997 -0.5982  1.5866
12247SOL    HW238736   2.893   1.194   6.766  0.3598 -1.5808  0.1866
12248SOL     OW38737   1.118   2.326   7.074  0.1605  0.0513  0.6287
12248SOL    HW138738   1.208   2.335   7.044  0.5450 -0.4877  1.5800
12248SOL    HW238739   1.085   2.416   7.079  0.4186  0.2100 -0.3782
12249SOL     OW38740   3.969   8.684   7.077  0.5696 -0.1442 -0.1507
12249SOL    HW138741   3.907   8.737   7.127 -0.1705 -1.0059 -0.1161
12249SOL    HW238742   3.991   8.738   7.001 -0.1740  0.2054 -0.1276
12250SOL     OW38743   3.723   6.818   6.628  0.6000 -0.2537  0.3611
12250SOL    HW138744   3.704   6.844   6.538 -2.7157 -0.1455  0.9784
12250SOL    HW238745   3.774   6.891   6.664  1.7730 -0.1901 -1.2704
12251SOL     OW38746   4.281   7.955   1.392 -0.2334 -0.0253 -0.2524
12251SOL    HW138747   4.338   7.968   1.468  0.0044 -1.0935 -0.2359
12251SOL    HW238748   4.341   7.937   1.320 -0.4625  0.9014 -0.6886
12252SOL     OW38749   1.593   0.796   4.753 -0.2966  0.0108 -0.4559
12252SOL    HW138750   1.620   0.801   4.845 -0.4191 -1.9740 -0.2626
12252SOL    HW238751   1.637   0.717   4.720  0.5009  1.1952 -2.3885
12253SOL     OW38752   8.273   7.977   2.112 -0.5801  0.5824 -0.3014
12253SOL    HW138753   8.300   7.999   2.201  0.0217 -2.1101  0.2612
12253SOL    HW238754   8.354   7.983   2.061 -0.6110  0.6571 -0.3413
12254SOL     OW38755   5.962   5.785   3.697 -0.0691 -0.2572  0.1197
12254SOL    HW138756   5.992   5.771   3.608  1.8869  1.2287  0.4845
12254SOL    HW238757   5.927   5.700   3.724  2.0462 -1.5957 -1.0698
12255SOL     OW38758   8.026   7.592   6.316  0.1667  0.5549 -0.2580
12255SOL    HW138759   8.083   7.634   6.380  0.9919  0.2643 -0.7795
12255SOL    HW238760   7.945   7.643   6.317  1.1387  2.1629 -0.8823
12256SOL     OW38761   8.868   8.375   5.363  0.2910  0.3795 -0.1024
12256SOL    HW138762   8.781   8.398   5.331  1.2063  1.1388 -2.2209
12256SOL    HW238763   8.918   8.355   5.284  1.9093 -0.5462  1.1101
12257SOL     OW38764   8.767   6.655   5.988  0.2423 -0.5249  0.7405
12257SOL    HW138765   8.752   6.579   6.044 -0.9114 -0.0134  1.1527
12257SOL    HW238766   8.699   6.717   6.014  2.1635  1.3503  1.6189
12258SOL     OW38767   5.476   7.787   2.206  0.3724 -0.4623  0.2350
12258SOL    HW138768   5.496   7.850   2.275  0.6144 -2.6492  2.2609
12258SOL    HW238769   5.528   7.817   2.131  0.3985  1.7754  1.0861
12259SOL     OW38770   7.547   0.822   3.801 -0.1238 -0.0853 -0.4108
12259SOL    HW138771   7.625   0.818   3.745  0.8505  2.9311  0.4979
12259SOL    HW238772   7.579   0.800   3.888 -0.4966  0.1345 -0.2160
12260SOL     OW38773   3.690   8.404   2.857 -0.4357  0.2552  0.0175
12260SOL    HW138774   3.646   8.487   2.838 -0.4841  0.7910  2.1852
12260SOL    HW238775   3.622   8.338   2.847 -0.3333  0.3833 -1.9998
12261SOL     OW38776   2.046   6.191   8.515 -0.6722  0.4393  0.2614
12261SOL    HW138777   2.102   6.240   8.456 -2.0757  1.2465 -0.4632
12261SOL    HW238778   2.060   6.230   8.601 -0.1506  0.6452  0.0826
12262SOL     OW38779   7.803   6.234   6.601 -0.3860 -0.3912  0.4692
12262SOL    HW138780   7.734   6.195   6.654 -0.4511 -1.9797 -0.7276
12262SOL    HW238781   7.802   6.185   6.519  0.5568  1.1534 -0.5344
12263SOL     OW38782   4.147   5.845   6.376  0.1183 -0.2174 -0.0817
12263SOL    HW138783   4.117   5.836   6.286  0.0126 -5.6597  0.1525
12263SOL    HW238784   4.099   5.921   6.410 -0.4212  1.5784 -4.2419
12264SOL     OW38785   2.449   7.385   0.822 -0.1434 -0.4419 -0.3959
12264SOL    HW138786   2.488   7.412   0.739  0.6062 -0.7213 -0.1446
12264SOL    HW238787   2.364   7.428   0.824  0.1443  0.1663 -0.9668
12265SOL     OW38788   2.890   6.152   2.064  0.4962  0.1497  0.1064
12265SOL    HW138789   2.862   6.062   2.047  1.6788  0.1499 -2.3128
12265SOL    HW238790   2.890   6.160   2.159 -0.9064 -1.9778  0.3490
12266SOL     OW38791   7.041   8.719   1.426  0.1883 -0.0538  0.0931
12266SOL    HW138792   6.962   8.764   1.456 -0.9681 -2.2395  0.5288
12266SOL    HW238793   7.026   8.704   1.332 -0.5776 -1.6823  0.4538
12267SOL     OW38794   2.434   6.413   2.520  0.7240 -0.0522  0.0314
12267SOL    HW138795   2.457   6.375   2.436 -2.3546 -0.4242 -0.7396
12267SOL    HW238796   2.406   6.502   2.499 -1.6926 -0.6841  0.3495
12268SOL     OW38797   8.284   2.512   4.534 -0.5619 -0.3523 -0.3918
12268SOL    HW138798   8.323   2.459   4.465  0.1465  0.6374 -0.7814
12268SOL    HW238799   8.274   2.452   4.608 -1.1555 -1.3751 -1.2777
12269SOL     OW38800   4.741   3.289   7.162  0.4063  0.4828 -0.0992
12269SOL    HW138801   4.771   3.322   7.247 -0.2795 -0.9124  0.7302
12269SOL    HW238802   4.820   3.286   7.108  0.9362  0.9887  0.6333
12270SOL     OW38803   3.246   6.087   4.404  0.3685  0.4137  0.0061
12270SOL    HW138804   3.312   6.026   4.372  0.3315  0.2485  0.2384
12270SOL    HW238805   3.243   6.071   4.499  0.0673  0.4868  0.0110
12271SOL     OW38806   8.816   0.563   6.579 -0.1048 -0.2680  0.6219
12271SOL    HW138807   8.742   0.574   6.639 -0.2865 -2.0132  0.7870
12271SOL    HW238808   8.809   0.472   6.551  2.8770 -1.0032  1.9033
12272SOL     OW38809   4.385   8.676   0.392  0.1476  0.6818 -0.1006
12272SOL    HW138810   4.402   8.609   0.326  0.4301  0.8163 -0.1666
12272SOL    HW238811   4.401   8.759   0.348  0.7737  0.7569  0.2583
12273SOL     OW38812   1.767   7.162   4.248 -0.1747  0.1974 -0.1158
12273SOL    HW138813   1.822   7.092   4.214  0.9675  0.6607  0.7182
12273SOL    HW238814   1.810   7.189   4.329  0.1744  2.7390 -1.0485
12274SOL     OW38815   4.815   8.245   2.139  0.5771  0.0131  0.4671
12274SOL    HW138816   4.823   8.171   2.199 -0.4446  0.2029  0.8646
12274SOL    HW238817   4.723   8.244   2.112  1.1441 -0.4795 -1.6616
12275SOL     OW38818   8.559   1.093   3.587 -0.3363 -0.3042  0.2305
12275SOL    HW138819   8.543   1.049   3.503  0.1084  0.2768 -0.1749
12275SOL    HW238820   8.521   1.035   3.653  1.1370 -1.8214 -0.1860
12276SOL     OW38821   6.840   7.101   3.441 -0.1257 -0.3777  0.1665
12276SOL    HW138822   6.857   7.008   3.456 -0.7189 -0.4509  0.4013
12276SOL    HW238823   6.869   7.116   3.351  0.1864 -0.7376  0.2051
12277SOL     OW38824   4.483   1.343   3.151  0.0353  0.5833  0.5595
12277SOL    HW138825   4.484   1.330   3.246 -0.1702 -0.1553  0.4621
12277SOL    HW238826   4.474   1.256   3.114 -1.9256  1.0031 -0.0924
12278SOL     OW38827   8.170   8.358   1.316  0.0254  0.1244  0.4000
12278SOL    HW138828   8.156   8.293   1.247  0.4459  0.0202  0.4053
12278SOL    HW238829   8.261   8.343   1.344 -0.4842 -0.6149  1.7789
12279SOL     OW38830   3.032   3.584   5.893 -0.3299 -0.2864 -0.3711
12279SOL    HW138831   3.052   3.502   5.847 -0.6922 -0.8066  0.3810
12279SOL    HW238832   3.117   3.612   5.928 -0.3024 -0.6524 -0.1353
12280SOL     OW38833   5.214   1.279   2.627  0.0844  0.0400  0.4841
12280SOL    HW138834   5.175   1.339   2.690  0.6468 -0.5529  1.4085
12280SOL    HW238835   5.307   1.302   2.625  0.4293 -1.1940  1.3310
12281SOL     OW38836   7.816   8.325   7.594 -0.7286  1.5250 -0.1168
12281SOL    HW138837   7.728   8.294   7.616 -0.0134 -0.3662  0.2618
12281SOL    HW238838   7.801   8.409   7.551 -2.7872  0.8427 -0.8826
12282SOL     OW38839   1.975   6.252   1.618 -0.2826  0.7758  0.2787
12282SOL    HW138840   1.983   6.348   1.618  0.6317  0.7037 -0.6401
12282SOL    HW238841   2.064   6.220   1.632 -0.6100  0.0452  0.7788
12283SOL     OW38842   0.554   8.637   2.715 -0.2612  0.1709  0.1004
12283SOL    HW138843   0.534   8.613   2.625  1.2542  2.1382 -0.8385
12283SOL    HW238844   0.631   8.693   2.709 -0.2740  0.5940  2.6011
12284SOL     OW38845   4.094   2.514   1.904 -0.2440  0.1487  0.1878
12284SOL    HW138846   4.092   2.424   1.873 -0.2200  0.5734 -1.1305
12284SOL    HW238847   4.102   2.507   1.999  0.6471 -1.2231  0.0392
12285SOL     OW38848   7.670   3.456   3.602  0.2691 -0.1645  0.2756
12285SOL    HW138849   7.588   3.416   3.574 -0.5173  0.3850  1.7205
12285SOL    HW238850   7.660   3.469   3.697  1.7831  0.4607  0.3834
12286SOL     OW38851   1.174   7.087   4.912  0.1583 -0.0777 -0.3883
12286SOL    HW138852   1.238   7.016   4.906 -1.0932 -1.2683 -0.4411
12286SOL    HW238853   1.106   7.053   4.971  0.6705  2.0657  1.5774
12287SOL     OW38854   1.270   3.997   4.512 -0.0039 -0.2313  0.5720
12287SOL    HW138855   1.342   4.048   4.547  0.6648  1.2763 -2.6056
12287SOL    HW238856   1.191   4.046   4.536  0.5831  2.0946 -1.7965
12288SOL     OW38857   1.700   2.233   5.008 -0.3887 -0.7269 -0.3800
12288SOL    HW138858   1.688   2.243   4.913  0.5208  0.5490 -0.3832
12288SOL    HW238859   1.612   2.243   5.044 -0.3003  3.3558 -0.7911
12289SOL     OW38860   0.628   2.722   2.633  0.1526 -0.2987 -0.3150
12289SOL    HW138861   0.666   2.701   2.548  0.3463 -0.3147 -0.2274
12289SOL    HW238862   0.563   2.789   2.615  0.6700  0.1911 -0.3934
12290SOL     OW38863   7.347   6.730   2.106  0.3528  0.3312 -0.4658
12290SOL    HW138864   7.432   6.750   2.067  0.3227  1.2250 -0.0871
12290SOL    HW238865   7.335   6.636   2.091  0.8463  0.4401 -1.6063
12291SOL     OW38866   3.217   3.804   4.512 -0.2816 -0.3962  0.7302
12291SOL    HW138867   3.168   3.875   4.468 -0.6134 -0.1713  1.4463
12291SOL    HW238868   3.279   3.850   4.568  0.0342 -0.6834  0.6136
12292SOL     OW38869   7.928   2.771   2.703 -0.1628  0.1126  0.1905
12292SOL    HW138870   7.914   2.682   2.670 -2.4532  0.5332 -0.0804
12292SOL    HW238871   8.023   2.775   2.719  0.2149 -1.8808 -1.1435
12293SOL     OW38872   5.224   2.124   0.372 -0.0478 -0.2226  0.1435
12293SOL    HW138873   5.199   2.031   0.372 -2.1576  0.2210  2.5054
12293SOL    HW238874   5.142   2.171   0.384  1.1805  1.8171  1.1768
12294SOL     OW38875   6.198   2.377   3.322 -0.4264 -0.0191  0.3018
12294SOL    HW138876   6.255   2.302   3.303 -0.0391 -0.1918  2.0369
12294SOL    HW238877   6.116   2.337   3.352 -1.4586  0.2312 -1.9533
12295SOL     OW38878   6.589   5.557   5.236 -0.1915 -0.6866  0.1530
12295SOL    HW138879   6.621   5.618   5.302 -2.0076  0.7870 -0.2639
12295SOL    HW238880   6.542   5.490   5.286 -0.5543 -0.2213  0.4371
12296SOL     OW38881   8.096   0.557   8.349  0.0550 -0.3359 -0.1816
12296SOL    HW138882   8.094   0.644   8.309 -2.8935 -0.7401 -1.1702
12296SOL    HW238883   8.019   0.556   8.407 -0.3456 -2.4822 -0.6830
12297SOL     OW38884   8.067   8.355   8.550  0.5238  0.2810 -0.7551
12297SOL    HW138885   8.028   8.437   8.518  1.4912  1.1374  0.1842
12297SOL    HW238886   8.067   8.297   8.474 -0.1178  1.1704 -1.4579
12298SOL     OW38887   8.176   3.587   6.406  0.1933  0.3253 -0.4407
12298SOL    HW138888   8.145   3.674   6.382 -0.3216 -0.2114 -1.7858
12298SOL    HW238889   8.100   3.544   6.445 -0.2198 -0.2974 -1.8913
12299SOL     OW38890   4.771   0.228   1.763  0.1897  0.6975  0.0829
12299SOL    HW138891   4.769   0.294   1.694  0.2254  0.3221 -0.2787
12299SOL    HW238892   4.797   0.147   1.719  0.6178  0.5424  0.6098
12300SOL     OW38893   2.870   5.131   4.307 -0.1119  0.2757 -0.3787
12300SOL    HW138894   2.803   5.127   4.239  1.5183  0.3243 -2.0904
12300SOL    HW238895   2.936   5.191   4.271  1.2347 -0.4161  0.8335
12301SOL     OW38896   5.899   7.861   4.043  0.6795  0.1926  0.4922
12301SOL    HW138897   5.812   7.822   4.051  0.7272  0.1072  0.6003
12301SOL    HW238898   5.901   7.898   3.955 -0.1557  1.8624  1.1259
12302SOL     OW38899   5.839   1.446   6.864 -0.1369  0.0555  0.0778
12302SOL    HW138900   5.760   1.396   6.884 -0.0790 -0.1187 -0.1267
12302SOL    HW238901   5.828   1.528   6.912  0.2853 -0.5992  1.3634
12303SOL     OW38902   7.491   5.451   5.762  0.6143  0.4019  1.1413
12303SOL    HW138903   7.443   5.436   5.681  1.1119 -1.1922  1.1006
12303SOL    HW238904   7.578   5.481   5.733  0.3093  1.3215  1.1506
12304SOL     OW38905   4.224   7.381   8.711 -0.5268  0.3569  0.2237
12304SOL    HW138906   4.304   7.431   8.727 -0.4219  0.5661 -0.8882
12304SOL    HW238907   4.221   7.318   8.784  2.5098 -1.9867 -1.4051
12305SOL     OW38908   0.817   7.031   4.928 -0.0146 -0.3482  0.3087
12305SOL    HW138909   0.843   6.989   4.846 -1.3708  0.2541 -0.4580
12305SOL    HW238910   0.799   6.958   4.987  0.5108 -0.7945 -0.0680
12306SOL     OW38911   3.554   4.666   0.559 -0.9469 -0.0323 -0.1081
12306SOL    HW138912   3.535   4.583   0.603 -2.2147 -0.1959 -0.8959
12306SOL    HW238913   3.472   4.715   0.564 -0.3924  0.9185 -0.1916
12307SOL     OW38914   1.174   3.681   5.040  0.4797  0.7013 -0.0351
12307SOL    HW138915   1.156   3.760   4.990 -2.3133 -1.0958 -2.2216
12307SOL    HW238916   1.236   3.631   4.986 -1.3199 -0.5524 -1.0249
12308SOL     OW38917   8.218   4.427   2.669 -0.1712 -0.3485  0.5988
12308SOL    HW138918   8.131   4.386   2.674 -0.0657 -0.6177  0.2657
12308SOL    HW238919   8.279   4.353   2.678  0.0221 -0.3889 -0.8652
12309SOL     OW38920   0.346   0.936   5.247 -0.6124 -0.4382 -0.0589
12309SOL    HW138921   0.301   0.878   5.187 -0.2851  0.8140 -1.5776
12309SOL    HW238922   0.277   0.993   5.282 -0.6384 -0.4403 -0.1081
12310SOL     OW38923   4.942   7.074   7.420 -0.1132  0.0116  0.0881
12310SOL    HW138924   4.919   6.996   7.369  1.2233  0.0209 -0.5963
12310SOL    HW238925   4.948   7.043   7.510  1.0742 -0.8720 -0.2619
12311SOL     OW38926   6.745   2.726   8.710  0.1415  0.6705 -0.6270
12311SOL    HW138927   6.740   2.754   8.619  0.7748 -0.0018 -0.8818
12311SOL    HW238928   6.839   2.723   8.729  0.1586 -1.5358 -0.7360
12312SOL     OW38929   2.124   1.062   5.142  0.1933 -0.3901  0.4453
12312SOL    HW138930   2.041   1.014   5.143 -0.1798  0.2503  0.9306
12312SOL    HW238931   2.190   0.997   5.119 -0.3266 -1.0905  0.9358
12313SOL     OW38932   8.333   7.138   5.458 -0.1018 -0.8771 -0.5999
12313SOL    HW138933   8.371   7.225   5.442 -1.0691 -0.2732  0.2551
12313SOL    HW238934   8.360   7.117   5.547 -1.2657 -0.6951 -0.1949
12314SOL     OW38935   7.131   6.154   7.402  0.1737 -0.5847  0.3239
12314SOL    HW138936   7.171   6.110   7.327  1.1918  1.1036 -0.1913
12314SOL    HW238937   7.201   6.161   7.467  0.2311  0.7244  0.1577
12315SOL     OW38938   6.148   2.666   4.784  0.3197 -0.3950 -0.1347
12315SOL    HW138939   6.094   2.744   4.782  0.9281  0.0079 -1.3686
12315SOL    HW238940   6.225   2.692   4.834 -0.2694 -0.7631  1.0126
12316SOL     OW38941   5.479   5.958   8.063 -0.7017 -0.0444  0.1231
12316SOL    HW138942   5.537   5.893   8.023 -1.2009  0.9657 -2.4045
12316SOL    HW238943   5.391   5.931   8.038 -1.0243  0.7441  0.3700
12317SOL     OW38944   0.716   4.517   5.992  0.2708 -0.1846  0.0601
12317SOL    HW138945   0.637   4.571   5.997  0.1838 -0.1530 -1.2810
12317SOL    HW238946   0.709   4.458   6.067 -0.4421  0.5894  0.6245
12318SOL     OW38947   7.253   0.066   8.816  0.0466 -0.0945  0.0470
12318SOL    HW138948   7.341   0.057   8.780  0.0792  1.2977 -0.2591
12318SOL    HW238949   7.237  -0.017   8.862  1.8284 -0.0333  0.8249
12319SOL     OW38950   0.267   1.644   7.214 -0.1735  0.6769 -0.7122
12319SOL    HW138951   0.294   1.681   7.129 -1.6199 -1.7659 -2.3380
12319SOL    HW238952   0.214   1.568   7.191 -1.6436  0.6309  2.4188
12320SOL     OW38953   0.112   6.264   1.086  0.3446 -0.3202  0.3907
12320SOL    HW138954   0.164   6.211   1.147 -0.4520 -1.1519  0.3737
12320SOL    HW238955   0.037   6.208   1.063 -0.5556  0.8313  0.4001
12321SOL     OW38956   3.704   0.953   8.206  0.3886  0.1237  0.4288
12321SOL    HW138957   3.726   1.039   8.169  0.7938  0.3197  1.1138
12321SOL    HW238958   3.788   0.916   8.233  0.1330 -0.1557  0.8572
12322SOL     OW38959   3.165   2.915   4.632 -0.4683 -0.4071 -0.1511
12322SOL    HW138960   3.221   2.857   4.684  0.3659  2.3429  2.2234
12322SOL    HW238961   3.200   2.908   4.543  1.9646 -0.8075  0.7578
12323SOL     OW38962   2.758   5.316   0.968 -0.0812  0.5604  0.2076
12323SOL    HW138963   2.686   5.363   1.009  0.2733  1.9887 -0.7040
12323SOL    HW238964   2.837   5.361   1.000  0.3303 -0.0928  0.1292
12324SOL     OW38965   2.115   3.599   4.932  0.1508  0.4838  0.0844
12324SOL    HW138966   2.108   3.554   4.847  1.4077  0.5747 -0.0837
12324SOL    HW238967   2.071   3.540   4.993  1.2563 -0.7444 -0.2378
12325SOL     OW38968   8.715   1.199   4.730 -0.1644  0.2553 -0.4419
12325SOL    HW138969   8.785   1.152   4.775  0.9531  0.3069 -2.0555
12325SOL    HW238970   8.635   1.152   4.755  0.3938  0.2954  1.5489
12326SOL     OW38971   8.431   1.004   4.436 -0.1599  0.1502  0.2020
12326SOL    HW138972   8.469   1.079   4.481 -0.9878  0.5311  0.2945
12326SOL    HW238973   8.351   0.984   4.485  0.2659 -1.0855  0.4493
12327SOL     OW38974   1.538   2.759   1.661 -0.3491 -0.5131  0.2110
12327SOL    HW138975   1.537   2.823   1.590  2.7724 -0.4539  0.0843
12327SOL    HW238976   1.464   2.701   1.642 -0.5308  0.3914 -2.2290
12328SOL     OW38977   1.877   2.492   2.877 -0.0436 -0.3182  0.5287
12328SOL    HW138978   1.883   2.525   2.788 -0.3894  0.2957  0.7269
12328SOL    HW238979   1.789   2.457   2.884 -0.1596  0.0149  0.7555
12329SOL     OW38980   8.768   3.265   8.346  0.3346 -0.1994 -0.5548
12329SOL    HW138981   8.842   3.278   8.286  1.6369  0.2549  1.0703
12329SOL    HW238982   8.787   3.184   8.392 -0.5510 -0.4515 -0.6085
12330SOL     OW38983   1.446   6.700   2.008 -0.3825 -0.3202 -0.2106
12330SOL    HW138984   1.454   6.610   2.041 -2.2876 -0.5774 -0.3156
12330SOL    HW238985   1.434   6.689   1.913 -0.2084  0.0746 -0.2789
12331SOL     OW38986   7.277   1.693   4.690 -0.4583 -0.2695  0.4423
12331SOL    HW138987   7.204   1.656   4.640 -0.0527  0.1350 -0.4780
12331SOL    HW238988   7.239   1.765   4.740 -1.0180 -1.1552  1.3120
12332SOL     OW38989   6.556   2.000   2.241  0.1949  0.0645  0.6203
12332SOL    HW138990   6.633   2.016   2.186  0.6064  1.4887  1.5475
12332SOL    HW238991   6.536   1.908   2.228  1.2899 -0.0298 -0.6186
12333SOL     OW38992   7.761   8.568   3.314 -0.7685 -0.2057 -0.1104
12333SOL    HW138993   7.667   8.580   3.330 -0.6361  0.5732  0.1403
12333SOL    HW238994   7.799   8.654   3.331  0.2912 -0.9815  1.8047
12334SOL     OW38995   3.769   7.478   6.835 -0.2705  0.0055 -0.2837
12334SOL    HW138996   3.835   7.546   6.849  0.2447 -0.7591  1.3178
12334SOL    HW238997   3.692   7.510   6.883 -0.2443 -0.2378 -0.0808
12335SOL     OW38998   3.590   0.638   6.904  0.0345  0.6576 -0.1560
12335SOL    HW138999   3.620   0.693   6.977 -0.9902 -1.5328  2.0637
12335SOL    HW239000   3.668   0.591   6.875  0.6121  2.1129 -1.0864
12336SOL     OW39001   1.843   1.220   2.964 -0.0824  0.1052 -0.1557
12336SOL    HW139002   1.837   1.131   2.997  0.5235  0.2799  0.4365
12336SOL    HW239003   1.839   1.210   2.868  2.6734 -0.8381 -0.2786
12337SOL     OW39004   0.557   1.012   0.593 -0.0451 -0.2884 -0.4453
12337SOL    HW139005   0.516   0.968   0.668  1.8468 -0.8016  0.3553
12337SOL    HW239006   0.498   1.084   0.572 -1.5565 -1.2351  0.3355
12338SOL     OW39007   8.876   4.744   7.242 -0.4500 -0.0323  0.1048
12338SOL    HW139008   8.830   4.735   7.325  1.0440  0.0134  0.9720
12338SOL    HW239009   8.885   4.838   7.229  1.0442 -0.0180  0.9381
12339SOL     OW39010   0.941   1.307   7.262  0.2314  0.1716 -0.3375
12339SOL    HW139011   0.851   1.277   7.276  0.3546  0.4477  1.1896
12339SOL    HW239012   0.978   1.314   7.350  1.3810  1.1919 -0.8744
12340SOL     OW39013   4.861   2.501   3.901  1.0449 -0.5871 -0.6737
12340SOL    HW139014   4.877   2.414   3.864 -1.3214 -0.5474 -2.0349
12340SOL    HW239015   4.792   2.488   3.965  0.7244  0.2572 -0.8288
12341SOL     OW39016   0.568   3.719   4.581 -0.8148 -0.1736  0.0407
12341SOL    HW139017   0.536   3.658   4.514 -0.2166  0.3859 -0.7762
12341SOL    HW239018   0.495   3.778   4.597 -1.1652 -0.6766  0.3330
12342SOL     OW39019   2.222   1.051   6.875  0.2377  0.0300  0.3546
12342SOL    HW139020   2.235   0.958   6.894  1.0511  0.3656  1.5697
12342SOL    HW239021   2.283   1.069   6.804 -0.0589 -0.4102 -0.0131
12343SOL     OW39022   7.474   3.509   4.208 -0.2078 -0.0661  0.6077
12343SOL    HW139023   7.497   3.601   4.218  1.9110 -0.5593  0.7217
12343SOL    HW239024   7.505   3.485   4.121  2.1207 -1.3855  1.7089
12344SOL     OW39025   0.806   7.190   3.008  0.0484 -0.6439  0.8054
12344SOL    HW139026   0.754   7.113   2.986  1.5162 -1.5131  0.2247
12344SOL    HW239027   0.860   7.163   3.082  0.3489 -0.0714  0.8068
12345SOL     OW39028   0.218   4.696   7.962 -0.0424  0.3568 -0.1352
12345SOL    HW139029   0.129   4.661   7.973 -0.0958  0.5425  0.0237
12345SOL    HW239030   0.243   4.725   8.050  0.5911 -0.6791  0.0438
12346SOL     OW39031   6.294   6.462   4.480 -0.0869 -0.0346  0.4380
12346SOL    HW139032   6.215   6.511   4.460 -0.7567 -0.8050  1.1272
12346SOL    HW239033   6.341   6.517   4.542  0.2512  0.7153 -0.4492
12347SOL     OW39034   2.742   5.002   8.790 -0.4128 -0.0789  0.0060
12347SOL    HW139035   2.776   5.024   8.877 -0.3507 -0.1931  0.0112
12347SOL    HW239036   2.797   5.052   8.730 -1.9171  1.8666  0.1247
12348SOL     OW39037   0.242   8.660   1.772  0.2574 -0.0790 -0.4896
12348SOL    HW139038   0.260   8.626   1.684  1.4929 -0.9090  0.0456
12348SOL    HW239039   0.260   8.586   1.830  1.0640  0.9161  0.5752
12349SOL     OW39040   7.139   2.402   6.220  0.2136  0.2999  0.7568
12349SOL    HW139041   7.073   2.398   6.289  0.3864 -2.3673  0.8757
12349SOL    HW239042   7.089   2.419   6.140 -0.5210 -0.5742  1.0090
12350SOL     OW39043   6.507   7.583   3.387  0.1884  0.5077 -0.0877
12350SOL    HW139044   6.570   7.512   3.382  1.0144  1.0036  2.2945
12350SOL    HW239045   6.453   7.573   3.308  0.6840 -2.3208 -0.1569
12351SOL     OW39046   4.991   8.424   7.191 -0.1230  0.0229 -0.7121
12351SOL    HW139047   4.955   8.450   7.275 -0.4219  0.5780 -1.0116
12351SOL    HW239048   4.991   8.504   7.138  1.8839  0.1552 -0.6039
12352SOL     OW39049   5.887   1.731   5.872  0.5759 -0.0680 -0.1551
12352SOL    HW139050   5.977   1.703   5.891  0.1628 -0.8822  0.6366
12352SOL    HW239051   5.865   1.688   5.790  0.9226  0.1747 -0.3793
12353SOL     OW39052   5.961   8.783   3.174 -0.0660 -0.1666 -0.1259
12353SOL    HW139053   6.024   8.727   3.129 -0.2353 -1.0506  0.7088
12353SOL    HW239054   5.903   8.814   3.105  0.3611 -0.5812 -0.6770
12354SOL     OW39055   6.818   0.472   8.616 -0.3790 -0.2710 -0.5517
12354SOL    HW139056   6.745   0.464   8.678 -0.4463  1.3138 -0.3806
12354SOL    HW239057   6.888   0.512   8.666 -0.5200  1.2994 -1.5097
12355SOL     OW39058   5.049   0.768   2.698 -0.2601  0.0673  0.1664
12355SOL    HW139059   5.079   0.689   2.743  1.0770  0.4285 -0.0474
12355SOL    HW239060   5.085   0.840   2.749  0.1723  0.5043 -0.7439
12356SOL     OW39061   6.861   6.388   1.547  0.2246 -0.1772 -0.2233
12356SOL    HW139062   6.909   6.447   1.606  0.6661 -0.3142 -0.4407
12356SOL    HW239063   6.929   6.350   1.491  0.1685 -1.9706  0.8315
12357SOL     OW39064   6.992   4.835   6.125 -0.6634  0.2080 -0.3715
12357SOL    HW139065   6.919   4.897   6.128 -0.5932  0.2842 -0.2564
12357SOL    HW239066   7.011   4.816   6.217  1.3965  2.4392 -0.2422
12358SOL     OW39067   7.299   8.324   8.059 -0.3332 -0.2452 -1.5003
12358SOL    HW139068   7.394   8.312   8.058 -0.3706 -0.6774 -0.7578
12358SOL    HW239069   7.267   8.255   8.117 -1.2113 -0.8600 -2.6834
12359SOL     OW39070   1.241   7.315   7.459 -0.0915 -0.0190  0.1091
12359SOL    HW139071   1.188   7.352   7.388  0.1424  2.1361  0.9824
12359SOL    HW239072   1.330   7.313   7.424 -0.5110 -2.9324 -1.0861
12360SOL     OW39073   0.514   0.808   0.412  0.1211  0.1156  0.4390
12360SOL    HW139074   0.517   0.749   0.487  0.3000  0.2395  0.5309
12360SOL    HW239075   0.510   0.896   0.450 -0.8755  0.1401  0.3054
12361SOL     OW39076   6.634   0.954   7.116  0.6522  0.0271  0.3573
12361SOL    HW139077   6.670   0.918   7.035 -1.2066 -1.7400  0.2424
12361SOL    HW239078   6.564   1.013   7.087  0.8016  0.3594  0.6602
12362SOL     OW39079   7.592   4.051   8.184  0.0123  0.2495  0.0715
12362SOL    HW139080   7.596   4.118   8.115 -1.7920  0.1236 -0.2070
12362SOL    HW239081   7.619   4.097   8.263  0.0965  0.9487 -0.3493
12363SOL     OW39082   7.654   4.542   4.306 -0.5565 -0.0284  0.1009
12363SOL    HW139083   7.626   4.593   4.231  1.1402  0.8100 -0.0177
12363SOL    HW239084   7.658   4.452   4.274 -0.0507  0.2917 -0.7718
12364SOL     OW39085   1.327   4.165   5.378  0.0841  0.2214 -0.1652
12364SOL    HW139086   1.331   4.199   5.467  0.5775  0.0990 -0.1331
12364SOL    HW239087   1.334   4.070   5.388  1.1344  0.2597 -0.3764
12365SOL     OW39088   2.223   3.764   5.131 -0.5413  0.0288  0.0693
12365SOL    HW139089   2.128   3.774   5.137 -0.5911 -0.8238  1.1170
12365SOL    HW239090   2.237   3.715   5.050 -1.1729 -1.4978  0.8349
12366SOL     OW39091   5.424   4.528   2.330 -0.1827  0.4024  0.3965
12366SOL    HW139092   5.417   4.453   2.389 -0.3795 -0.2752 -0.4775
12366SOL    HW239093   5.508   4.569   2.353  1.5095 -1.9125 -1.1964
12367SOL     OW39094   7.073   5.873   0.224 -0.4324  0.0530  0.6666
12367SOL    HW139095   7.047   5.816   0.152 -0.7963  2.3879 -1.1648
12367SOL    HW239096   7.154   5.835   0.257  0.3428 -0.5007 -1.7039
12368SOL     OW39097   6.001   5.191   2.678 -0.6971  0.5081 -0.1842
12368SOL    HW139098   6.077   5.156   2.724 -0.0742  2.3276  0.2198
12368SOL    HW239099   5.994   5.136   2.599 -0.2559 -1.0051  0.7813
12369SOL     OW39100   6.567   6.808   0.379 -0.0540  0.6866 -0.1644
12369SOL    HW139101   6.481   6.767   0.394  0.2334 -0.3478 -1.2168
12369SOL    HW239102   6.552   6.900   0.398 -1.7989  0.7833 -1.7306
12370SOL     OW39103   5.359   5.088   8.510 -1.0190  0.1601 -0.3857
12370SOL    HW139104   5.365   5.086   8.414  0.5731 -0.4840 -0.2981
12370SOL    HW239105   5.301   5.016   8.532  0.5146 -1.2462 -0.7765
12371SOL     OW39106   1.740   0.383   2.047  0.1087  0.7136 -0.7297
12371SOL    HW139107   1.644   0.385   2.043  0.0372  0.7744  0.4986
12371SOL    HW239108   1.760   0.303   2.096  0.7669 -0.1092 -2.2808
12372SOL     OW39109   3.229   0.139   3.292  0.2260  0.5919  0.7394
12372SOL    HW139110   3.322   0.116   3.294  0.3100  0.7367 -0.5738
12372SOL    HW239111   3.190   0.075   3.234 -0.0255  2.0383 -0.7580
12373SOL     OW39112   2.383   7.201   4.173 -0.4735 -0.0711 -0.3380
12373SOL    HW139113   2.371   7.232   4.263 -1.0098  0.8433 -0.7053
12373SOL    HW239114   2.340   7.268   4.120  2.2825  0.9388 -1.4735
12374SOL     OW39115   7.769   8.668   0.551  0.1477  0.0246  0.2275
12374SOL    HW139116   7.766   8.736   0.484 -0.5029 -1.5063 -1.3547
12374SOL    HW239117   7.775   8.586   0.502  1.7055 -1.0566  2.0778
12375SOL     OW39118   1.425   2.082   4.233  0.2861 -0.5895  0.4511
12375SOL    HW139119   1.414   2.087   4.328 -0.6334 -0.8739  0.3726
12375SOL    HW239120   1.425   1.989   4.213  1.0560 -0.5495  0.2217
12376SOL     OW39121   7.784   3.186   5.676  0.0322  0.2562  0.1075
12376SOL    HW139122   7.815   3.143   5.756 -1.1377  2.4693  1.8275
12376SOL    HW239123   7.696   3.151   5.663 -0.2021  0.7301  0.4233
12377SOL     OW39124   3.236   7.573   6.790 -0.0815  0.4630  0.0269
12377SOL    HW139125   3.200   7.623   6.716  1.6294  3.0041  0.8022
12377SOL    HW239126   3.297   7.511   6.749 -0.9314  0.1657 -0.8382
12378SOL     OW39127   4.181   2.904   5.751  0.1708  0.1039 -0.0642
12378SOL    HW139128   4.193   2.818   5.710 -0.5985 -0.2511  0.4263
12378SOL    HW239129   4.177   2.965   5.677 -1.2662 -0.5278 -0.5490
12379SOL     OW39130   3.397   7.783   0.156  0.2889  0.5216  0.8311
12379SOL    HW139131   3.492   7.773   0.157  0.3497  0.6606 -0.8176
12379SOL    HW239132   3.382   7.874   0.130 -0.2859  0.4051  0.7368
12380SOL     OW39133   2.131   8.605   1.104  0.1651 -0.0965 -0.4568
12380SOL    HW139134   2.052   8.584   1.152  0.7607 -1.7675 -0.1415
12380SOL    HW239135   2.117   8.694   1.072 -1.7584 -0.3077 -0.2939
12381SOL     OW39136   0.256   7.856   1.512 -0.1225  0.1538 -0.5433
12381SOL    HW139137   0.278   7.912   1.437  0.2608  1.2334  0.3460
12381SOL    HW239138   0.234   7.917   1.582 -0.8181 -0.8470  0.1317
12382SOL     OW39139   6.096   2.981   6.878 -0.4576  0.6274 -0.1324
12382SOL    HW139140   6.104   2.920   6.952 -1.2865  0.0072 -0.5440
12382SOL    HW239141   6.186   2.992   6.846 -0.2365  0.0496  0.2802
12383SOL     OW39142   0.673   5.328   1.930 -0.5057 -0.4711  0.5820
12383SOL    HW139143   0.764   5.309   1.951  0.2454 -0.1951 -2.0144
12383SOL    HW239144   0.634   5.243   1.910 -0.6842 -0.5379  1.2055
12384SOL     OW39145   4.014   5.109   7.617 -0.1816  0.3705 -0.4830
12384SOL    HW139146   4.064   5.077   7.542  0.5763 -0.9826  0.5424
12384SOL    HW239147   4.067   5.179   7.654  0.1841  0.0343 -0.3569
12385SOL     OW39148   5.969   8.460   8.826  0.2694  0.2879 -0.5547
12385SOL    HW139149   5.901   8.511   8.871  0.2514 -0.6156  0.4881
12385SOL    HW239150   5.930   8.436   8.742 -1.4790 -1.8142  0.7619
12386SOL     OW39151   8.485   2.913   1.464  0.0702  0.0709  0.2608
12386SOL    HW139152   8.502   2.987   1.522 -2.2089  0.0545  1.0220
12386SOL    HW239153   8.502   2.836   1.518 -0.0285  0.0408  0.2482
12387SOL     OW39154   8.675   3.708   6.551  0.4725  0.1821  0.3199
12387SOL    HW139155   8.592   3.661   6.538  1.3407 -1.1833 -0.6618
12387SOL    HW239156   8.657   3.797   6.521 -1.4186  0.7747  2.8599
12388SOL     OW39157   2.165   1.330   0.854  0.2415  0.2151  0.1717
12388SOL    HW139158   2.189   1.240   0.832  1.3934  0.3449  0.8570
12388SOL    HW239159   2.090   1.320   0.913  0.7392 -0.3180  0.7193
12389SOL     OW39160   6.654   5.655   0.034  0.3592  0.1439 -0.4346
12389SOL    HW139161   6.620   5.617  -0.047 -0.3147  0.7682 -0.4527
12389SOL    HW239162   6.651   5.583   0.097  0.3904 -0.2034 -0.8236
12390SOL     OW39163   1.037   4.233   3.528  0.4068 -0.3313 -0.3391
12390SOL    HW139164   0.994   4.222   3.612 -0.3863  1.0121 -0.5429
12390SOL    HW239165   1.111   4.291   3.546  0.5128 -0.4205 -0.4859
12391SOL     OW39166   8.595   3.333   4.759 -0.0974  1.0046 -0.6500
12391SOL    HW139167   8.503   3.358   4.748  0.2909  2.6261 -0.5752
12391SOL    HW239168   8.643   3.399   4.710  1.0469  0.3910 -0.3754
12392SOL     OW39169   0.158   8.408   4.725  0.1924  0.4359 -0.4292
12392SOL    HW139170   0.174   8.483   4.668  0.2456 -0.3555 -1.4925
12392SOL    HW239171   0.196   8.334   4.679 -0.4034 -0.3530  0.2981
12393SOL     OW39172   6.595   5.197   8.495  0.5079 -0.0055 -0.3578
12393SOL    HW139173   6.552   5.224   8.577  0.9659  0.1856 -0.1766
12393SOL    HW239174   6.629   5.279   8.459  1.6843 -0.2820  0.0624
12394SOL     OW39175   3.091   0.052   2.488 -0.5805 -0.2683 -0.1488
12394SOL    HW139176   3.132   0.131   2.454 -0.4186  0.3680  1.4374
12394SOL    HW239177   3.049   0.012   2.412  0.7658  0.4316 -1.3071
12395SOL     OW39178   3.057   2.962   5.451 -0.3161 -0.0861  0.2186
12395SOL    HW139179   3.073   2.930   5.362 -0.2617  0.6291 -0.0313
12395SOL    HW239180   3.143   2.994   5.480 -0.2446 -0.6844  0.6803
12396SOL     OW39181   4.190   0.295   6.170 -0.2499  0.1189 -0.0611
12396SOL    HW139182   4.226   0.208   6.157  3.0221  1.3271 -0.0744
12396SOL    HW239183   4.128   0.285   6.242 -0.5735 -2.3058 -0.5916
12397SOL     OW39184   3.209   5.884   4.173 -0.2571 -0.0223 -0.0429
12397SOL    HW139185   3.277   5.911   4.236 -0.9673 -1.6630  1.5312
12397SOL    HW239186   3.195   5.791   4.192 -0.8996 -0.4560 -2.3272
12398SOL     OW39187   3.777   6.504   3.532  0.0688  0.2044 -0.2719
12398SOL    HW139188   3.842   6.527   3.598 -0.3899  0.2325  0.1754
12398SOL    HW239189   3.769   6.409   3.539  2.1428 -0.2202 -2.2838
12399SOL     OW39190   2.399   4.058   5.543  0.0589 -0.0347  0.1469
12399SOL    HW139191   2.317   4.107   5.544 -0.1715 -0.4183  1.2478
12399SOL    HW239192   2.448   4.095   5.470 -1.1105  0.1692 -0.5649
12400SOL     OW39193   3.193   4.343   1.405 -0.3167  0.2952  0.1629
12400SOL    HW139194   3.122   4.282   1.427  0.7307 -0.3248  2.0634
12400SOL    HW239195   3.272   4.290   1.408  0.3918  1.2692 -0.5680
12401SOL     OW39196   0.062   5.416   8.613  0.1618 -0.1065 -0.2782
12401SOL    HW139197   0.121   5.378   8.678  0.7228  0.3749 -0.4960
12401SOL    HW239198  -0.025   5.408   8.652  0.3135 -1.2052 -0.1325
12402SOL     OW39199   7.209   1.508   7.123  0.4294 -0.0861 -0.7457
12402SOL    HW139200   7.153   1.585   7.130 -0.8749 -1.1097  0.6915
12402SOL    HW239201   7.171   1.445   7.184  2.6653 -1.1420 -0.3327
12403SOL     OW39202   5.314   8.667   8.096  0.0993 -0.4115 -0.1475
12403SOL    HW139203   5.323   8.583   8.141 -1.2093 -0.6067 -0.2043
12403SOL    HW239204   5.380   8.723   8.137  0.4989 -1.2551  0.3973
12404SOL     OW39205   7.660   5.854   1.961  0.7380  0.4014 -0.1814
12404SOL    HW139206   7.670   5.875   2.054 -0.0306 -0.6687  0.1701
12404SOL    HW239207   7.735   5.799   1.941  0.8562  0.5580 -0.1744
12405SOL     OW39208   1.159   7.622   3.488  0.8100  0.0021  0.1055
12405SOL    HW139209   1.099   7.550   3.467  1.5779 -0.7908  0.5818
12405SOL    HW239210   1.118   7.699   3.449 -2.0316  0.0619  2.8438
12406SOL     OW39211   3.074   3.775   6.201 -0.5412 -0.1657 -0.5904
12406SOL    HW139212   3.109   3.789   6.289 -1.3513  0.8515 -0.4107
12406SOL    HW239213   2.984   3.807   6.205 -1.0873 -1.5116 -1.3908
12407SOL     OW39214   4.870   1.042   2.976 -0.2523 -0.3293 -0.0891
12407SOL    HW139215   4.800   0.995   2.932 -0.4992 -0.6838  0.6746
12407SOL    HW239216   4.827   1.116   3.018 -0.0653 -0.1672 -0.1794
12408SOL     OW39217   0.481   4.979   3.670  0.1245  0.4403 -0.1756
12408SOL    HW139218   0.554   4.957   3.728 -1.1869 -1.8631  0.7395
12408SOL    HW239219   0.404   4.977   3.727 -0.7644  2.2287 -1.2342
12409SOL     OW39220   8.864   0.656   6.975  0.5551 -0.1159  0.1366
12409SOL    HW139221   8.897   0.574   6.939  1.4015 -0.2999  1.2958
12409SOL    HW239222   8.861   0.642   7.069 -0.3121  0.8243  0.2737
12410SOL     OW39223   4.814   1.819   6.912  0.7794 -0.0492  0.3033
12410SOL    HW139224   4.829   1.746   6.972  1.6749 -0.6206 -0.5864
12410SOL    HW239225   4.901   1.846   6.885  0.4835  1.5975  0.8711
12411SOL     OW39226   0.281   0.259   0.110 -0.2491  0.6325 -0.3549
12411SOL    HW139227   0.240   0.278   0.026 -1.5357 -0.6890 -0.0671
12411SOL    HW239228   0.300   0.165   0.107 -0.8737  0.4270  1.0253
12412SOL     OW39229   6.611   7.095   3.603 -0.1353 -0.4190  0.0954
12412SOL    HW139230   6.672   7.122   3.534 -0.6346  1.7163  0.4269
12412SOL    HW239231   6.582   7.008   3.576  1.0352 -0.3830 -1.4432
12413SOL     OW39232   8.071   6.090   4.687  0.4355 -0.4939 -0.3128
12413SOL    HW139233   8.098   6.181   4.678 -1.0057 -0.0781 -0.7038
12413SOL    HW239234   8.009   6.077   4.615 -0.3713 -1.3911  0.5300
12414SOL     OW39235   3.568   3.720   5.668  0.0522 -0.1453  0.0003
12414SOL    HW139236   3.639   3.668   5.705 -0.1031 -1.2990 -1.2314
12414SOL    HW239237   3.499   3.656   5.650 -0.8030  0.7580 -0.0083
12415SOL     OW39238   8.553   3.957   8.867 -0.0367 -0.0722  0.3952
12415SOL    HW139239   8.517   4.003   8.943  0.0807 -0.7597  0.8757
12415SOL    HW239240   8.621   4.015   8.834 -0.3409  0.4017  0.5847
12416SOL     OW39241   2.185   3.537   3.284 -0.2572  0.2874  0.1212
12416SOL    HW139242   2.090   3.523   3.286 -0.3876  0.6202 -1.8198
12416SOL    HW239243   2.216   3.506   3.369 -1.8827 -1.5298  0.1050
12417SOL     OW39244   1.462   4.546   5.075  0.3332 -0.5861 -0.3368
12417SOL    HW139245   1.519   4.487   5.025  1.5819  0.2140  0.0964
12417SOL    HW239246   1.511   4.565   5.155 -1.0915 -0.8371  0.6404
12418SOL     OW39247   2.008   7.140   8.057  0.2249 -0.1846 -0.4548
12418SOL    HW139248   2.063   7.162   8.132 -0.8078  0.2811  0.1884
12418SOL    HW239249   1.956   7.219   8.041 -2.4457 -1.5400  0.8983
12419SOL     OW39250   3.464   7.370   7.058 -0.2680  0.0207  0.5012
12419SOL    HW139251   3.514   7.306   7.009  0.5829 -0.2219  1.6228
12419SOL    HW239252   3.492   7.455   7.023 -0.9517 -0.1844 -0.5742
12420SOL     OW39253   2.042   5.681   4.243  0.0895 -0.3312 -0.6298
12420SOL    HW139254   2.060   5.758   4.297 -0.2680 -0.4154 -0.3840
12420SOL    HW239255   1.966   5.641   4.285 -0.5262 -0.1027 -1.5215
12421SOL     OW39256   6.511   6.704   4.458 -0.5537  0.9817 -0.3551
12421SOL    HW139257   6.536   6.660   4.377 -3.2112  0.5817 -1.0784
12421SOL    HW239258   6.562   6.661   4.526  0.7808  0.4283 -1.6452
12422SOL     OW39259   5.446   6.647   0.110 -0.2316 -0.2080  0.7212
12422SOL    HW139260   5.424   6.640   0.203  0.1305  1.2395  0.9485
12422SOL    HW239261   5.542   6.640   0.108  0.0543  2.5023  0.8385
12423SOL     OW39262   1.889   2.969   6.409 -0.0586  0.1516  0.3375
12423SOL    HW139263   1.806   2.922   6.412 -1.8831  3.0448 -0.6393
12423SOL    HW239264   1.872   3.052   6.454  2.2275  0.9662 -0.1195
12424SOL     OW39265   3.286   1.703   6.067  0.1814 -0.4182  0.2300
12424SOL    HW139266   3.337   1.734   5.992 -0.4996  0.3632  0.0704
12424SOL    HW239267   3.235   1.630   6.032 -3.4469  2.5476 -1.4073
12425SOL     OW39268   2.547   3.981   0.531  0.0911 -0.0532 -0.0470
12425SOL    HW139269   2.489   3.918   0.488  0.3663  0.2463 -0.8651
12425SOL    HW239270   2.631   3.935   0.539  0.2190  0.1142 -0.4095
12426SOL     OW39271   1.100   6.059   3.158 -0.1381  0.6160 -0.1405
12426SOL    HW139272   1.165   6.114   3.201  0.2190  0.5267 -0.5558
12426SOL    HW239273   1.082   6.103   3.075  1.5331 -0.8097 -1.3258
12427SOL     OW39274   6.264   0.559   2.690  0.3133 -0.5332  0.1673
12427SOL    HW139275   6.235   0.563   2.781 -0.5171 -0.1282 -0.1064
12427SOL    HW239276   6.248   0.648   2.657  0.5729 -0.6918 -0.3834
12428SOL     OW39277   0.190   0.893   0.928 -0.0754  0.0028  0.6592
12428SOL    HW139278   0.101   0.930   0.932  0.1202  0.6520 -0.6100
12428SOL    HW239279   0.195   0.835   1.005 -2.2309 -1.4503 -0.1943
12429SOL     OW39280   8.429   0.130   7.099  0.2618  0.9452 -0.6214
12429SOL    HW139281   8.377   0.166   7.028 -0.8454  1.1797  0.2935
12429SOL    HW239282   8.410   0.036   7.097  0.3548  0.9269 -0.7204
12430SOL     OW39283   1.251   6.577   7.517  0.2634  0.4863  0.2231
12430SOL    HW139284   1.312   6.644   7.486  1.8784 -0.7285  0.6702
12430SOL    HW239285   1.307   6.506   7.548 -1.3976 -0.9073  0.1543
12431SOL     OW39286   8.036   2.017   8.429 -0.2325  0.0170  0.3271
12431SOL    HW139287   7.966   2.007   8.364  0.2640 -1.0905 -0.0783
12431SOL    HW239288   8.002   1.973   8.507 -0.4311  0.4522  0.4830
12432SOL     OW39289   1.729   3.396   8.187 -0.0422 -0.3645 -0.3751
12432SOL    HW139290   1.824   3.383   8.195 -0.1134 -0.4496  0.3810
12432SOL    HW239291   1.713   3.395   8.093  0.7314 -0.1974 -0.5169
12433SOL     OW39292   7.184   4.762   1.670  0.0083 -0.0966  0.0421
12433SOL    HW139293   7.218   4.746   1.758  0.3976  1.0034  0.1112
12433SOL    HW239294   7.212   4.686   1.619  0.0402 -0.6023  0.7922
12434SOL     OW39295   8.716   7.474   6.445  0.2921 -0.3864 -0.4578
12434SOL    HW139296   8.739   7.525   6.367  0.0662 -0.9131 -0.8724
12434SOL    HW239297   8.775   7.399   6.443  1.8654  0.7138  1.1152
12435SOL     OW39298   4.138   4.003   4.738  0.4808  0.2547 -0.1740
12435SOL    HW139299   4.185   3.934   4.785 -0.2979  0.4323  0.8973
12435SOL    HW239300   4.197   4.028   4.667 -0.0173 -2.8327 -1.8156
12436SOL     OW39301   7.710   2.808   7.576  0.4357  0.3033  0.6996
12436SOL    HW139302   7.619   2.837   7.580 -0.2779 -1.5141 -0.7784
12436SOL    HW239303   7.709   2.721   7.616  1.3173 -0.1486 -0.2213
12437SOL     OW39304   8.108   1.706   1.550 -0.2631  0.0943 -0.0231
12437SOL    HW139305   8.015   1.692   1.531 -0.7912  1.8909  1.0047
12437SOL    HW239306   8.110   1.788   1.598  1.6262 -0.9580  1.8738
12438SOL     OW39307   7.775   0.087   0.392  0.4186  0.5301  0.4748
12438SOL    HW139308   7.805   0.127   0.473  1.2587  2.1120 -0.5575
12438SOL    HW239309   7.833   0.012   0.379 -0.0054  0.0035  1.5256
12439SOL     OW39310   2.654   6.126   1.806  0.3290  0.8837  0.3374
12439SOL    HW139311   2.708   6.204   1.794  0.0441  1.0580  0.1889
12439SOL    HW239312   2.708   6.055   1.772 -0.0845  1.2398 -1.1315
12440SOL     OW39313   7.224   1.135   7.068 -0.4567  0.2693  0.1250
12440SOL    HW139314   7.230   1.077   6.992 -1.8541  2.8405 -2.1236
12440SOL    HW239315   7.315   1.163   7.083 -0.0754 -0.7581 -0.1491
12441SOL     OW39316   4.102   3.710   2.017 -0.1289  0.3007 -0.0308
12441SOL    HW139317   4.092   3.727   2.111  2.1672  2.0433 -0.0023
12441SOL    HW239318   4.155   3.631   2.012  2.8568  2.1273  0.3522
12442SOL     OW39319   0.465   6.486   3.417 -0.3092  0.2227  0.0465
12442SOL    HW139320   0.405   6.558   3.399  0.9684  1.0172 -1.2501
12442SOL    HW239321   0.426   6.410   3.374  0.1937  1.0196 -1.9425
12443SOL     OW39322   3.514   1.856   6.972 -0.4566  0.5918 -0.3420
12443SOL    HW139323   3.493   1.949   6.964 -1.7743  0.3419  0.0136
12443SOL    HW239324   3.554   1.834   6.888 -1.0858  1.2522 -0.8362
12444SOL     OW39325   4.850   3.724   5.805 -0.1534 -0.3606 -0.3294
12444SOL    HW139326   4.761   3.743   5.833 -0.2751 -0.1007 -0.8824
12444SOL    HW239327   4.864   3.780   5.729  0.0081 -1.3671 -1.0683
12445SOL     OW39328   3.429   8.700   2.505 -0.3454  0.5259 -0.5506
12445SOL    HW139329   3.380   8.757   2.564  0.4765  2.9576 -2.0481
12445SOL    HW239330   3.406   8.611   2.532 -2.4059  1.5441  1.3501
12446SOL     OW39331   8.710   0.002   5.970 -0.3834  0.4729  0.6592
12446SOL    HW139332   8.630   0.036   6.009  0.5875  1.2078  2.0697
12446SOL    HW239333   8.780   0.030   6.029  0.9246 -0.1445 -0.5376
12447SOL     OW39334   1.663   4.013   1.868  0.6655  0.0088  0.7933
12447SOL    HW139335   1.611   4.089   1.894 -0.0395 -0.9419  2.2969
12447SOL    HW239336   1.605   3.964   1.809  0.0863 -0.6831  1.9046
12448SOL     OW39337   4.277   6.076   6.548 -0.0872  0.6775 -0.1984
12448SOL    HW139338   4.278   6.167   6.519 -1.5156  1.0810  0.8914
12448SOL    HW239339   4.197   6.068   6.600 -0.5562 -1.4980 -1.1394
12449SOL     OW39340   8.238   3.652   3.926  0.3861  0.5741 -0.3589
12449SOL    HW139341   8.267   3.739   3.952  0.4352  0.7483 -0.9777
12449SOL    HW239342   8.226   3.604   4.009  1.0836  0.9303 -0.0473
12450SOL     OW39343   4.798   1.110   4.650 -0.2211  0.4199 -0.1234
12450SOL    HW139344   4.891   1.123   4.667 -0.3681 -0.0209  1.1617
12450SOL    HW239345   4.791   1.018   4.623 -0.1990  0.6439 -0.8887
12451SOL     OW39346   6.524   7.767   3.860 -0.3953  0.3165  0.1568
12451SOL    HW139347   6.514   7.724   3.775  2.4809  1.4052 -0.8722
12451SOL    HW239348   6.546   7.857   3.838  0.8957  0.5014  2.0172
12452SOL     OW39349   1.603   2.748   0.842 -0.1231  0.3628 -0.4981
12452SOL    HW139350   1.616   2.709   0.928  1.1309 -0.8510 -1.2007
12452SOL    HW239351   1.521   2.796   0.850 -0.2053  0.0027  1.2673
12453SOL     OW39352   1.818   6.187   0.426  0.1949  0.4411  0.3353
12453SOL    HW139353   1.756   6.256   0.447 -0.6781 -0.4534  0.7469
12453SOL    HW239354   1.851   6.158   0.511 -0.2068 -0.3346  0.2326
12454SOL     OW39355   7.284   5.641   6.558 -0.5139  0.1449 -0.0716
12454SOL    HW139356   7.267   5.700   6.485 -0.7333 -0.1546 -0.2647
12454SOL    HW239357   7.198   5.616   6.590 -0.4858 -1.4277 -1.0934
12455SOL     OW39358   5.715   1.563   3.504  0.0800 -0.0489  0.0488
12455SOL    HW139359   5.648   1.500   3.532  0.2778 -0.6008 -0.7100
12455SOL    HW239360   5.730   1.543   3.412 -1.5299  2.5891 -0.8936
12456SOL     OW39361   2.850   0.600   1.597  0.0156 -0.4763  0.1693
12456SOL    HW139362   2.793   0.665   1.557 -0.0566  0.4237  1.6741
12456SOL    HW239363   2.879   0.640   1.679  0.3386 -2.1482  0.9137
12457SOL     OW39364   5.920   6.476   8.647  0.6608  0.3093  0.1300
12457SOL    HW139365   5.924   6.490   8.552  2.1382  0.3178  0.1731
12457SOL    HW239366   5.977   6.543   8.684  0.9835 -0.3974  0.9467
12458SOL     OW39367   2.423   6.996   2.036  0.0038 -0.2233  0.2122
12458SOL    HW139368   2.460   7.007   2.124  2.4225  0.5394 -0.8280
12458SOL    HW239369   2.433   7.081   1.994 -2.4978 -0.1429 -0.3807
12459SOL     OW39370   1.909   7.657   1.809  0.2699  0.1099  0.0600
12459SOL    HW139371   1.856   7.672   1.730  2.1593  2.2507 -0.9299
12459SOL    HW239372   1.850   7.676   1.881 -1.2493 -0.9406 -0.8621
12460SOL     OW39373   0.456   2.611   8.350 -0.1382 -0.3485  0.1362
12460SOL    HW139374   0.431   2.604   8.258 -2.8400 -0.8269  0.8307
12460SOL    HW239375   0.443   2.523   8.385  0.4912 -0.0809  1.0601
12461SOL     OW39376   1.521   6.796   0.168 -0.0139 -0.0449 -0.2705
12461SOL    HW139377   1.440   6.746   0.178  0.7172 -1.5201 -1.4661
12461SOL    HW239378   1.529   6.844   0.251 -0.5879 -2.1365  1.0761
12462SOL     OW39379   6.384   4.245   6.186  0.2976 -0.4691  0.2398
12462SOL    HW139380   6.456   4.294   6.226  0.2204  1.7548 -2.0910
12462SOL    HW239381   6.426   4.194   6.116 -0.1549 -0.3456 -0.1316
12463SOL     OW39382   4.393   2.551   2.113  0.3264 -0.1296 -0.1014
12463SOL    HW139383   4.374   2.514   2.027 -1.9092 -0.9593  0.6784
12463SOL    HW239384   4.314   2.534   2.165  0.5040  2.8008  1.3202
12464SOL     OW39385   1.488   1.193   8.188 -0.2516 -0.0264  0.4564
12464SOL    HW139386   1.505   1.103   8.216  2.0509  0.1663 -0.1135
12464SOL    HW239387   1.470   1.240   8.269 -0.1189 -0.7457  0.9108
12465SOL     OW39388   5.832   6.821   6.679 -0.2221 -0.2002 -0.3127
12465SOL    HW139389   5.742   6.790   6.672 -1.3365  2.5712  0.3930
12465SOL    HW239390   5.838   6.858   6.767  1.2168  0.8032 -0.7875
12466SOL     OW39391   6.198   7.887   0.694  0.4253 -0.1407  0.3032
12466SOL    HW139392   6.132   7.860   0.758  1.1275 -1.4648  0.4989
12466SOL    HW239393   6.191   7.982   0.691 -0.4374 -0.1487  1.4649
12467SOL     OW39394   5.899   1.636   1.616  0.3800 -0.1704  0.1852
12467SOL    HW139395   5.922   1.556   1.663  2.0871 -0.5625 -1.2277
12467SOL    HW239396   5.856   1.691   1.682  1.2149 -1.3328  1.7638
12468SOL     OW39397   0.843   4.849   5.078  0.1318 -0.3830 -0.2423
12468SOL    HW139398   0.932   4.818   5.058 -0.1156 -0.5138 -1.1654
12468SOL    HW239399   0.834   4.836   5.173  0.7907 -1.1828 -0.2800
12469SOL     OW39400   3.196   1.014   3.713 -0.2569 -0.0292  0.0504
12469SOL    HW139401   3.143   0.935   3.723 -0.5397 -0.0239 -1.2055
12469SOL    HW239402   3.240   1.003   3.629 -2.1994  2.1787 -1.4034
12470SOL     OW39403   8.268   7.258   6.945  0.4223  0.0616 -0.2650
12470SOL    HW139404   8.349   7.307   6.935 -0.1847  1.7655  2.2280
12470SOL    HW239405   8.231   7.255   6.856  1.5647  2.2755 -0.9020
12471SOL     OW39406   7.462   8.592   3.319 -0.1882 -0.1457  0.7991
12471SOL    HW139407   7.487   8.506   3.286 -0.6690 -1.4036  3.4430
12471SOL    HW239408   7.430   8.639   3.242 -0.3516 -2.4884 -0.6691
12472SOL     OW39409   7.463   5.364   1.673 -0.2160  0.1979  0.0173
12472SOL    HW139410   7.410   5.390   1.598 -0.6522 -0.9006 -0.0653
12472SOL    HW239411   7.510   5.444   1.697  1.2169  0.1805 -2.4519
12473SOL     OW39412   7.390   4.499   0.944  0.1635  0.4294 -0.3995
12473SOL    HW139413   7.414   4.563   1.011  1.0834  0.1593 -0.4595
12473SOL    HW239414   7.472   4.454   0.923 -0.6396 -1.5078  0.4042
12474SOL     OW39415   0.971   0.279   8.454 -0.7368 -0.0147  0.2851
12474SOL    HW139416   0.915   0.268   8.378 -0.0123  1.0932 -0.4365
12474SOL    HW239417   1.039   0.340   8.425 -0.3293  0.2658  1.7512
12475SOL     OW39418   1.243   7.949   0.694  0.0210  0.1351  0.0638
12475SOL    HW139419   1.304   7.966   0.622  0.3107  0.1596  0.3143
12475SOL    HW239420   1.299   7.920   0.766 -0.4748 -2.5516 -0.5252
12476SOL     OW39421   8.508   6.882   0.830 -0.0714  0.0910 -0.3944
12476SOL    HW139422   8.551   6.947   0.775 -1.3348  0.3409 -1.1283
12476SOL    HW239423   8.575   6.855   0.892  0.8307  1.1983 -0.8535
12477SOL     OW39424   1.418   3.852   1.102  0.2109 -0.0212 -0.1338
12477SOL    HW139425   1.357   3.913   1.061 -0.1661 -1.1902 -1.3949
12477SOL    HW239426   1.495   3.852   1.045  0.1749 -0.7677 -0.1981
12478SOL     OW39427   6.961   2.975   8.048 -0.1282  0.2734  0.1322
12478SOL    HW139428   6.963   2.903   7.985  1.1399  0.5381 -0.1482
12478SOL    HW239429   6.956   2.933   8.134 -0.4519 -0.1198 -0.0802
12479SOL     OW39430   8.799   5.921   8.323 -0.6631 -0.4769  0.8051
12479SOL    HW139431   8.733   5.856   8.297 -0.0795 -0.1359 -1.9109
12479SOL    HW239432   8.853   5.876   8.388 -0.9506 -2.3637 -0.1777
12480SOL     OW39433   4.836   5.078   4.705  0.0210 -0.2401  0.8028
12480SOL    HW139434   4.875   4.996   4.674 -0.0020  0.1480 -0.3152
12480SOL    HW239435   4.897   5.110   4.771  0.5804 -0.6277  0.4859
12481SOL     OW39436   8.576   4.179   3.802  0.3144  0.6818 -0.5390
12481SOL    HW139437   8.571   4.095   3.757  0.5166  1.1923 -1.5379
12481SOL    HW239438   8.496   4.225   3.777  0.0823  0.7014  0.2039
12482SOL     OW39439   6.156   0.009   2.432 -0.0482 -0.2088  0.5797
12482SOL    HW139440   6.060   0.009   2.437 -0.2608 -1.0713 -1.8896
12482SOL    HW239441   6.182  -0.072   2.474 -0.6627 -1.3270 -1.0953
12483SOL     OW39442   2.394   6.693   2.485  0.3489  0.4175  0.3054
12483SOL    HW139443   2.361   6.775   2.521  0.1209  0.7497 -0.6353
12483SOL    HW239444   2.377   6.699   2.391 -0.8281 -1.2273  0.3717
12484SOL     OW39445   6.979   3.328   3.067  0.1505  0.0166  0.4997
12484SOL    HW139446   6.886   3.351   3.059 -0.1614 -1.0465  0.8692
12484SOL    HW239447   7.005   3.301   2.979  0.6155  2.0405 -0.0197
12485SOL     OW39448   2.591   5.405   1.797  0.6565  0.3736 -0.3544
12485SOL    HW139449   2.527   5.445   1.739  1.3607  0.8015 -0.8490
12485SOL    HW239450   2.541   5.341   1.848  0.2207 -0.8321 -2.2238
12486SOL     OW39451   4.712   8.437   3.996  0.1986  0.1102  0.4835
12486SOL    HW139452   4.734   8.522   3.956  0.8246 -0.1570  0.2443
12486SOL    HW239453   4.664   8.460   4.076 -0.8447  0.6671 -0.2702
12487SOL     OW39454   1.427   0.504   8.303 -0.0126 -0.3177 -0.1909
12487SOL    HW139455   1.477   0.491   8.383  0.1035  2.2431  0.2419
12487SOL    HW239456   1.456   0.434   8.245  1.3206 -1.0908  1.3244
12488SOL     OW39457   4.245   6.428   7.576  0.1641 -0.5907 -0.2513
12488SOL    HW139458   4.310   6.497   7.589 -0.2763 -0.5041  1.6461
12488SOL    HW239459   4.174   6.470   7.528 -0.4864  0.5351  1.6369
12489SOL     OW39460   5.338   0.737   5.953 -0.1061  0.2996  0.2769
12489SOL    HW139461   5.395   0.761   6.027 -0.4708 -0.9038  0.9692
12489SOL    HW239462   5.329   0.642   5.960 -2.2313  0.4490  0.2118
12490SOL     OW39463   2.945   8.110   1.295  0.0265  0.2517  0.7369
12490SOL    HW139464   2.860   8.153   1.306 -0.2585 -0.8062  3.7199
12490SOL    HW239465   3.009   8.179   1.309 -0.4250  0.2501  3.3579
12491SOL     OW39466   5.538   8.103   0.262 -0.4157  0.4975 -0.6695
12491SOL    HW139467   5.517   8.169   0.328  0.7314  0.0050  0.2225
12491SOL    HW239468   5.610   8.141   0.213 -0.6551  0.4730 -1.0442
12492SOL     OW39469   2.691   3.050   5.658 -0.2131  0.7273  0.3297
12492SOL    HW139470   2.672   3.123   5.716 -1.3976  0.3794  0.4040
12492SOL    HW239471   2.674   2.972   5.711  1.3587  0.3631  0.3657
12493SOL     OW39472   0.741   3.276   4.124  0.2474  0.4497  0.3171
12493SOL    HW139473   0.667   3.236   4.168 -0.1942  1.2501  0.3253
12493SOL    HW239474   0.702   3.332   4.056  0.9162 -2.3424 -2.6208
12494SOL     OW39475   8.321   3.301   4.883  0.3096 -0.9325  0.1419
12494SOL    HW139476   8.259   3.301   4.956  0.2817 -1.9014  0.1274
12494SOL    HW239477   8.372   3.220   4.894  0.6885 -0.8025 -0.5861
12495SOL     OW39478   5.885   0.001   4.048 -0.2580 -0.1333 -0.1653
12495SOL    HW139479   5.829   0.069   4.086 -0.1513  0.1462 -0.5031
12495SOL    HW239480   5.924  -0.043   4.123  1.3609  1.5723  0.0763
12496SOL     OW39481   6.867   5.186   1.105  0.2727  0.1156 -0.3915
12496SOL    HW139482   6.806   5.113   1.117 -0.0398  0.7236  2.3635
12496SOL    HW239483   6.931   5.175   1.176  1.5924  1.2175 -1.3644
12497SOL     OW39484   2.310   1.489   6.410  0.3186 -0.3664  0.2986
12497SOL    HW139485   2.351   1.569   6.378 -0.8845 -0.0845 -0.6194
12497SOL    HW239486   2.233   1.519   6.458  0.7811 -0.9163  1.4272
12498SOL     OW39487   7.693   1.258   6.635 -0.0144 -0.1999 -0.3805
12498SOL    HW139488   7.741   1.291   6.559  1.1667  0.7785  0.7549
12498SOL    HW239489   7.638   1.332   6.662  0.4953 -0.1141  0.4461
12499SOL     OW39490   0.871   0.734   6.476  0.2255  1.1294 -0.0995
12499SOL    HW139491   0.840   0.821   6.452 -0.6466  0.7907 -0.2417
12499SOL    HW239492   0.954   0.750   6.521 -1.3507  2.3448  2.6807
12500SOL     OW39493   0.680   1.738   5.555  0.2869 -0.1474 -0.1055
12500SOL    HW139494   0.595   1.696   5.547  0.7227 -0.9532 -0.5777
12500SOL    HW239495   0.676   1.811   5.492 -0.5318  0.6734  0.8514
12501SOL     OW39496   4.200   6.844   3.073 -0.1521  0.1970 -0.5755
12501SOL    HW139497   4.281   6.882   3.107 -0.1512 -1.2193  1.1475
12501SOL    HW239498   4.197   6.871   2.982  1.1981  2.0067 -0.1404
12502SOL     OW39499   0.550   2.754   8.648  0.3840 -0.1701 -0.2165
12502SOL    HW139500   0.569   2.847   8.636 -1.0316  0.1462 -0.1767
12502SOL    HW239501   0.599   2.710   8.578  0.4658  0.6685 -0.6995
12503SOL     OW39502   0.101   7.793   7.083 -0.4615 -0.1701  0.4563
12503SOL    HW139503   0.190   7.759   7.094 -0.7398 -0.8857  0.5233
12503SOL    HW239504   0.085   7.786   6.989 -0.4912 -0.1511  0.4601
12504SOL     OW39505   2.220   8.506   0.047  0.4073 -0.0708  0.1568
12504SOL    HW139506   2.286   8.474   0.108  0.6338 -0.5597 -0.3380
12504SOL    HW239507   2.260   8.584   0.007  1.3115 -1.1776 -1.2065
12505SOL     OW39508   0.616   6.900   7.012 -0.4364 -0.1757  0.0736
12505SOL    HW139509   0.675   6.873   7.082 -1.5005 -1.0251  0.6866
12505SOL    HW239510   0.615   6.827   6.951 -0.0883  0.2505 -0.4452
12506SOL     OW39511   6.251   5.503   4.050 -0.2021 -0.0319  0.2910
12506SOL    HW139512   6.156   5.506   4.046 -0.2019  0.4238  0.5527
12506SOL    HW239513   6.278   5.595   4.060  0.3211 -0.0100 -1.0485
12507SOL     OW39514   7.512   5.054   3.481 -0.1238 -0.2407 -0.5180
12507SOL    HW139515   7.531   4.994   3.408  0.3637 -1.7821  0.8028
12507SOL    HW239516   7.477   4.997   3.549  0.7439  0.9298  0.9516
12508SOL     OW39517   8.110   3.858   6.846  0.2949  0.8424  0.5039
12508SOL    HW139518   8.189   3.911   6.849  0.6677  0.3889 -0.7374
12508SOL    HW239519   8.065   3.885   6.766 -0.1668  0.2240  0.5415
12509SOL     OW39520   3.071   0.156   5.974  0.1276 -0.3500  0.1082
12509SOL    HW139521   3.163   0.139   5.956 -0.5020 -1.0212 -3.0766
12509SOL    HW239522   3.030   0.070   5.975 -0.3342 -0.2151  3.1632
12510SOL     OW39523   4.571   8.524   1.446 -0.2480 -0.5424 -0.1284
12510SOL    HW139524   4.654   8.563   1.417 -0.4856  1.0742  1.1573
12510SOL    HW239525   4.579   8.521   1.542 -2.1824  0.9813  0.1352
12511SOL     OW39526   3.983   2.988   2.120 -0.7925 -0.0905 -0.0948
12511SOL    HW139527   3.985   2.936   2.201 -1.0616 -0.4242 -0.3043
12511SOL    HW239528   4.032   2.936   2.057  0.9430  0.9696  0.3209
12512SOL     OW39529   6.215   2.281   1.400  0.6423  0.5494 -0.4968
12512SOL    HW139530   6.245   2.322   1.481  1.1474 -1.1722  0.2397
12512SOL    HW239531   6.141   2.226   1.428  0.7697  0.0003 -1.2156
12513SOL     OW39532   1.192   2.293   0.807  0.0971 -0.8011 -0.2302
12513SOL    HW139533   1.098   2.276   0.810  0.1482 -1.0210  0.3804
12513SOL    HW239534   1.231   2.220   0.855  0.4178  0.3794  1.3864
12514SOL     OW39535   5.696   3.136   2.399  0.1302  0.0830  0.2349
12514SOL    HW139536   5.790   3.132   2.416  0.7527 -0.0848 -2.6228
12514SOL    HW239537   5.676   3.229   2.396  0.6443  0.1738 -0.9460
12515SOL     OW39538   6.207   7.110   2.299 -0.6492 -0.4115  0.0516
12515SOL    HW139539   6.191   7.203   2.285 -1.0906 -0.6473 -1.1296
12515SOL    HW239540   6.145   7.066   2.241 -0.2223 -1.4431  0.3532
12516SOL     OW39541   8.601   3.449   0.473  0.6263 -0.5305  0.1327
12516SOL    HW139542   8.525   3.503   0.450  0.3110  0.4554  3.0431
12516SOL    HW239543   8.587   3.367   0.425 -1.1664  0.3767 -1.0313
12517SOL     OW39544   8.065   1.443   4.437  0.2477  0.1234  0.3042
12517SOL    HW139545   7.980   1.458   4.478  1.3997  1.0330  2.5411
12517SOL    HW239546   8.115   1.523   4.455  2.3199 -1.2734  1.1007
12518SOL     OW39547   6.318   6.119   7.339 -0.1085  0.2289  0.4892
12518SOL    HW139548   6.352   6.038   7.300 -0.5819  1.0625 -1.8467
12518SOL    HW239549   6.386   6.147   7.400 -0.0340 -2.0032  1.5356
12519SOL     OW39550   4.203   5.664   7.436  0.5039  0.2351  0.1046
12519SOL    HW139551   4.116   5.671   7.397  0.5402 -0.1854 -0.0564
12519SOL    HW239552   4.248   5.744   7.410 -0.5719  1.5541  2.0623
12520SOL     OW39553   5.151   8.111   0.112 -0.6679  0.6178  0.3088
12520SOL    HW139554   5.114   8.023   0.098 -1.1731  0.8217  0.3483
12520SOL    HW239555   5.124   8.134   0.201  2.8125 -0.8177  1.9335
12521SOL     OW39556   6.914   4.866   3.076  0.1485  0.1315 -0.6440
12521SOL    HW139557   6.953   4.933   3.132  0.9116 -0.3559 -0.5742
12521SOL    HW239558   6.827   4.900   3.055  1.1439  1.9907 -2.0810
12522SOL     OW39559   3.855   2.557   2.286  0.0953  0.9279  0.2764
12522SOL    HW139560   3.942   2.519   2.278 -0.2143 -0.1361  1.4689
12522SOL    HW239561   3.801   2.508   2.224  0.0049  0.3920  0.7662
12523SOL     OW39562   4.523   7.394   2.388 -0.1065 -0.0456 -1.1908
12523SOL    HW139563   4.431   7.387   2.363 -1.1457  1.0711  1.8612
12523SOL    HW239564   4.537   7.488   2.401  0.4692 -0.4342  1.4494
12524SOL     OW39565   4.681   1.888   7.342  0.1709  0.0853  0.3357
12524SOL    HW139566   4.681   1.793   7.326 -2.1193 -0.1321  1.3032
12524SOL    HW239567   4.635   1.925   7.266  0.9026  0.4341  0.0478
12525SOL     OW39568   5.286   6.156   6.435  0.1395 -0.1970  0.0362
12525SOL    HW139569   5.359   6.176   6.494 -0.7298  1.3643  0.6225
12525SOL    HW239570   5.238   6.086   6.478  0.1608  0.1543  0.6445
12526SOL     OW39571   6.035   6.336   8.057  0.0507  0.0609  0.0367
12526SOL    HW139572   6.066   6.364   8.143 -0.3349  0.0666  0.1782
12526SOL    HW239573   5.969   6.269   8.076  0.8187 -0.8043 -0.2908
12527SOL     OW39574   7.110   3.533   6.269 -0.1924 -0.1736  0.9696
12527SOL    HW139575   7.112   3.452   6.218  1.3657 -0.1384  0.9366
12527SOL    HW239576   7.114   3.603   6.204  0.4195 -0.1069  1.0752
12528SOL     OW39577   7.217   0.714   8.791 -0.0122 -0.2512 -0.5562
12528SOL    HW139578   7.210   0.762   8.874 -1.0740 -0.1500 -0.6859
12528SOL    HW239579   7.290   0.653   8.805  1.1616  1.1539 -0.2763
12529SOL     OW39580   6.832   6.576   2.970 -0.0530  0.1383  0.1361
12529SOL    HW139581   6.777   6.505   2.938  1.8237 -1.0963 -0.5562
12529SOL    HW239582   6.899   6.532   3.023  0.1783  1.5879  1.0979
12530SOL     OW39583   8.735   7.565   6.793  0.2032 -0.3761 -0.6708
12530SOL    HW139584   8.782   7.581   6.711  0.1376 -1.0270 -0.8452
12530SOL    HW239585   8.796   7.514   6.847 -0.2482 -1.1427 -0.8626
12531SOL     OW39586   8.305   5.557   5.097 -0.4068  0.4620 -0.4657
12531SOL    HW139587   8.257   5.590   5.173 -0.0044 -0.3116  0.1461
12531SOL    HW239588   8.397   5.563   5.123 -0.2982 -0.5280 -0.5699
12532SOL     OW39589   7.750   2.420   5.405 -0.2755 -0.0178 -1.0082
12532SOL    HW139590   7.721   2.461   5.487 -0.1221  0.1635 -1.0437
12532SOL    HW239591   7.776   2.494   5.350  0.4502 -0.1918 -0.9023
12533SOL     OW39592   6.243   3.658   1.577  0.5710 -0.0331 -0.3425
12533SOL    HW139593   6.247   3.711   1.497  0.1823 -0.3463 -0.5760
12533SOL    HW239594   6.273   3.571   1.549 -1.1531 -0.6046 -0.5626
12534SOL     OW39595   1.547   4.082   2.889 -0.3180 -0.1081  0.7058
12534SOL    HW139596   1.550   4.164   2.839  1.8875  0.8799  2.2701
12534SOL    HW239597   1.565   4.109   2.979 -2.7383 -1.9742  1.8718
12535SOL     OW39598   1.113   4.906   3.564 -0.5555  0.6597  0.3396
12535SOL    HW139599   1.122   4.994   3.601 -0.1092  0.2426  1.2551
12535SOL    HW239600   1.199   4.886   3.529 -1.0021  1.0931 -1.0753
12536SOL     OW39601   3.945   2.905   8.300  0.0134  0.1520  0.0209
12536SOL    HW139602   3.903   2.941   8.378 -0.4574 -0.1881 -0.0718
12536SOL    HW239603   3.886   2.926   8.229 -0.5128 -1.1989  0.0265
12537SOL     OW39604   8.270   2.676   6.701 -0.4310  0.1834 -0.2465
12537SOL    HW139605   8.250   2.706   6.790 -2.8523 -1.4494 -0.1629
12537SOL    HW239606   8.254   2.582   6.702 -1.8872  0.3141 -2.7338
12538SOL     OW39607   4.556   7.443   5.363  0.7819  0.1647  0.4563
12538SOL    HW139608   4.610   7.366   5.378  2.4071  1.3884  1.1744
12538SOL    HW239609   4.599   7.489   5.291 -0.1038  0.4729  0.1057
12539SOL     OW39610   2.489   3.874   3.532  0.2627 -0.1723 -0.4481
12539SOL    HW139611   2.570   3.917   3.562  0.9049 -0.3864 -1.7916
12539SOL    HW239612   2.479   3.903   3.441 -1.0786 -0.3139 -0.3640
12540SOL     OW39613   1.520   7.979   6.305 -0.1900 -0.2415 -0.7093
12540SOL    HW139614   1.425   7.983   6.294  0.0475  1.4898 -2.6165
12540SOL    HW239615   1.541   7.886   6.296 -1.6075 -0.5570 -0.9831
12541SOL     OW39616   1.725   6.398   5.761  0.2304 -0.1596 -0.0188
12541SOL    HW139617   1.690   6.409   5.672  0.0431  0.0541  0.0792
12541SOL    HW239618   1.648   6.404   5.818  0.6570  3.3486  0.4553
12542SOL     OW39619   2.486   4.834   1.268 -0.5928 -0.1438 -0.1737
12542SOL    HW139620   2.491   4.773   1.342 -1.2579 -0.2445 -0.2006
12542SOL    HW239621   2.394   4.860   1.265 -0.2459  1.1750  0.0834
12543SOL     OW39622   6.926   6.843   6.790 -0.1541  0.2549 -0.4682
12543SOL    HW139623   6.876   6.809   6.716 -2.9564  0.2037  1.2845
12543SOL    HW239624   6.954   6.765   6.838 -0.2169  0.3106 -0.3408
12544SOL     OW39625   7.212   5.554   1.768  0.2461 -0.5385  0.1638
12544SOL    HW139626   7.242   5.572   1.679 -0.5691  0.7770  0.1176
12544SOL    HW239627   7.133   5.501   1.756  0.9256 -1.5737  0.1748
12545SOL     OW39628   6.983   0.183   8.644 -0.6429  1.0140 -0.4488
12545SOL    HW139629   7.054   0.237   8.679  0.8238 -0.4339 -1.0829
12545SOL    HW239630   6.990   0.100   8.691 -0.3041 -0.0272 -2.2479
12546SOL     OW39631   5.667   3.907   6.492  0.0904 -0.0336 -0.2693
12546SOL    HW139632   5.727   3.947   6.555  1.6409 -0.7311 -1.2624
12546SOL    HW239633   5.669   3.813   6.514 -1.8358  0.0810  0.6441
12547SOL     OW39634   1.948   1.341   4.183  0.3088 -0.4580  0.0180
12547SOL    HW139635   1.926   1.257   4.223 -0.8884  0.7467  2.0339
12547SOL    HW239636   1.986   1.393   4.253 -1.1905  1.4996 -0.4961
12548SOL     OW39637   6.194   2.503   0.372 -0.2324 -0.2781 -0.1400
12548SOL    HW139638   6.281   2.463   0.368 -0.8741 -1.8748  0.9412
12548SOL    HW239639   6.202   2.570   0.439  0.1290 -0.5337  0.0801
12549SOL     OW39640   6.746   6.941   2.678 -0.2028 -0.1066  0.0134
12549SOL    HW139641   6.710   7.002   2.614  0.7575 -0.3103 -0.7361
12549SOL    HW239642   6.670   6.890   2.707 -0.6309 -0.1613 -1.1299
12550SOL     OW39643   4.529   7.929   2.138 -0.2748  0.6233 -0.0934
12550SOL    HW139644   4.531   8.005   2.080 -0.8316  2.4425  2.1182
12550SOL    HW239645   4.440   7.926   2.172 -0.1060 -0.6879  0.3101
12551SOL     OW39646   7.311   0.409   5.019 -0.2797  0.7152  0.8638
12551SOL    HW139647   7.308   0.452   5.105 -0.1831 -1.5995  2.0952
12551SOL    HW239648   7.287   0.318   5.036 -1.5591  0.4491 -1.7986
12552SOL     OW39649   0.348   3.879   0.343 -0.2985  0.0445  0.1231
12552SOL    HW139650   0.275   3.856   0.286  1.5644 -0.5537 -2.1804
12552SOL    HW239651   0.422   3.892   0.284  2.2409 -2.3505  2.4172
12553SOL     OW39652   4.955   7.165   3.867  0.2636 -0.2614 -0.2559
12553SOL    HW139653   4.924   7.167   3.957  0.3802 -0.0057 -0.2194
12553SOL    HW239654   5.045   7.132   3.872 -0.1547 -1.4745 -0.4123
12554SOL     OW39655   4.094   8.422   0.264 -0.2342 -0.3028 -0.0760
12554SOL    HW139656   4.072   8.340   0.220  0.6306 -0.3806 -0.3753
12554SOL    HW239657   4.106   8.398   0.356 -1.2354 -0.2776  0.0794
12555SOL     OW39658   3.298   4.330   3.618  0.0177 -0.1868  0.1588
12555SOL    HW139659   3.366   4.317   3.684 -0.4016 -0.2267  0.5879
12555SOL    HW239660   3.260   4.416   3.638 -1.2135 -0.8929  1.0019
12556SOL     OW39661   0.027   1.813   8.359 -1.2416  0.0261  0.2250
12556SOL    HW139662  -0.057   1.817   8.313 -0.7097 -0.3451 -0.8087
12556SOL    HW239663   0.004   1.808   8.451 -2.3454  0.5678 -0.0036
12557SOL     OW39664   2.068   2.952   6.200 -0.1523 -0.1196  0.3586
12557SOL    HW139665   2.053   2.945   6.294 -0.5630  1.1115  0.4020
12557SOL    HW239666   2.055   3.045   6.180 -0.3390 -0.4047 -0.9576
12558SOL     OW39667   0.706   7.230   7.643 -0.2131 -0.0651 -0.4283
12558SOL    HW139668   0.741   7.222   7.732 -0.4261  1.9542 -0.1265
12558SOL    HW239669   0.783   7.232   7.587  0.0468  1.0069 -0.0580
12559SOL     OW39670   2.221   8.076   4.816 -0.0731  0.1437  0.5069
12559SOL    HW139671   2.206   8.144   4.882  1.2613  0.9165  0.0548
12559SOL    HW239672   2.301   8.032   4.843 -0.2372 -0.4118  0.1114
12560SOL     OW39673   2.643   6.897   3.385 -0.4168  0.4402 -0.8896
12560SOL    HW139674   2.607   6.849   3.460  0.4302  0.3538 -0.5274
12560SOL    HW239675   2.687   6.972   3.424 -0.0168  0.4264 -1.3035
12561SOL     OW39676   8.665   7.445   8.376  0.2867  0.2596 -0.1801
12561SOL    HW139677   8.646   7.519   8.318 -0.9484  0.8406  0.9143
12561SOL    HW239678   8.593   7.445   8.439  0.1717 -2.0098 -0.2512
12562SOL     OW39679   6.570   8.554   8.042  0.3319 -0.0451  0.1896
12562SOL    HW139680   6.476   8.545   8.058  0.5978 -0.0353  1.8820
12562SOL    HW239681   6.593   8.477   7.990 -0.4088 -0.6378  0.7186
12563SOL     OW39682   0.665   6.869   7.719  0.0217 -0.1305  0.0791
12563SOL    HW139683   0.680   6.960   7.745 -0.7071  0.3921 -1.2012
12563SOL    HW239684   0.570   6.863   7.711  0.0808 -0.9560 -0.0257
12564SOL     OW39685   2.878   8.338   4.245  0.8729  0.1318  0.0628
12564SOL    HW139686   2.851   8.411   4.301  1.7690  0.7420 -0.2815
12564SOL    HW239687   2.915   8.273   4.305  1.3604  0.5632  0.2315
12565SOL     OW39688   1.730   3.365   5.169 -0.0646  0.1907  0.5441
12565SOL    HW139689   1.699   3.447   5.131 -0.6443  0.8388  2.2960
12565SOL    HW239690   1.688   3.361   5.255  1.8183 -0.7586  1.4926
12566SOL     OW39691   0.825   7.152   3.937  0.1266 -0.0237  0.3896
12566SOL    HW139692   0.828   7.192   4.024  0.6000 -0.0138  0.3704
12566SOL    HW239693   0.835   7.225   3.876  1.3362 -0.1892  0.3603
12567SOL     OW39694   5.761   8.062   8.164 -0.1071 -0.0376  0.4134
12567SOL    HW139695   5.841   8.051   8.112 -0.1042 -0.4397  0.4949
12567SOL    HW239696   5.750   7.977   8.207  0.0680  0.3940  1.3294
12568SOL     OW39697   3.115   7.941   0.463  0.0898  0.4007 -0.3045
12568SOL    HW139698   3.194   7.925   0.411 -0.5491 -0.4498 -1.0392
12568SOL    HW239699   3.132   7.896   0.546 -0.1924 -1.0329 -0.9966
12569SOL     OW39700   7.608   6.262   8.231  0.1200 -0.3922  0.0593
12569SOL    HW139701   7.631   6.355   8.226 -2.7924  0.4107 -0.2908
12569SOL    HW239702   7.667   6.219   8.169 -1.2143  1.9122 -3.0685
12570SOL     OW39703   7.610   8.033   5.044  0.0935  0.1832 -0.1557
12570SOL    HW139704   7.515   8.018   5.051  0.2098 -0.6757 -0.3848
12570SOL    HW239705   7.647   7.947   5.026  1.0091  0.3677  0.7563
12571SOL     OW39706   6.167   8.357   3.650 -0.5490 -0.0725 -0.0899
12571SOL    HW139707   6.212   8.280   3.684 -0.2879 -0.3827 -1.0849
12571SOL    HW239708   6.222   8.387   3.577 -1.5882 -0.0808 -0.9153
12572SOL     OW39709   7.494   6.841   6.268 -0.3089  0.0011  0.2952
12572SOL    HW139710   7.455   6.903   6.206 -1.2308 -0.2658  0.6076
12572SOL    HW239711   7.563   6.798   6.217  0.3313  1.2555  0.0622
12573SOL     OW39712   3.908   5.559   4.191 -0.4857 -0.8560  0.2108
12573SOL    HW139713   3.922   5.650   4.217 -1.1047 -1.1043  1.4472
12573SOL    HW239714   3.997   5.524   4.181 -0.2291 -0.5325  1.2368
12574SOL     OW39715   0.086   3.078   8.042  0.0971  0.0799 -0.6214
12574SOL    HW139716   0.022   3.008   8.056 -0.9687  0.1950 -4.1036
12574SOL    HW239717   0.038   3.146   7.995  2.4209  0.7631 -2.1912
12575SOL     OW39718   3.826   8.697   2.920  0.1286  0.1280 -0.1206
12575SOL    HW139719   3.880   8.715   2.843 -0.4486 -1.1218 -0.8529
12575SOL    HW239720   3.757   8.764   2.917 -0.8795 -0.8999 -1.6995
12576SOL     OW39721   7.609   0.064   4.646 -0.2067 -0.1680 -0.1686
12576SOL    HW139722   7.593  -0.030   4.656 -0.3838  0.0125  1.6957
12576SOL    HW239723   7.679   0.071   4.581  1.1800 -1.7099  1.0835
12577SOL     OW39724   0.386   2.558   2.224  0.2347  0.0149  0.2700
12577SOL    HW139725   0.408   2.587   2.313 -0.2133  1.2955 -0.0183
12577SOL    HW239726   0.448   2.486   2.207  0.9868  0.3980  1.2449
12578SOL     OW39727   3.083   8.274   8.722 -0.1926 -0.0277 -0.0687
12578SOL    HW139728   3.093   8.179   8.736 -2.6553 -0.4451 -0.6221
12578SOL    HW239729   3.144   8.294   8.650  2.1645 -0.6310  1.6266
12579SOL     OW39730   5.037   7.603   0.184  0.0078  1.0221  0.0996
12579SOL    HW139731   5.055   7.531   0.124 -0.1015  0.4374  0.7520
12579SOL    HW239732   5.052   7.566   0.271  0.5061  1.9469  0.4295
12580SOL     OW39733   8.558   0.883   6.443  0.0277  0.8747  0.6156
12580SOL    HW139734   8.566   0.893   6.538 -0.5711  0.9413  0.6647
12580SOL    HW239735   8.589   0.966   6.408 -0.9166  1.3418  0.8222
12581SOL     OW39736   4.526   1.623   6.535 -0.5294 -0.6483 -0.0866
12581SOL    HW139737   4.578   1.578   6.601  0.7433 -1.7390 -1.7628
12581SOL    HW239738   4.438   1.627   6.572  0.4255  0.1220  2.2922
12582SOL     OW39739   1.896   8.714   6.029  0.1377 -0.0189 -0.1378
12582SOL    HW139740   1.834   8.745   5.964 -0.2142 -0.7749 -0.1732
12582SOL    HW239741   1.884   8.772   6.105 -0.9674 -0.4728  0.0444
12583SOL     OW39742   5.299   4.193   7.453 -0.4439  0.0072 -0.4267
12583SOL    HW139743   5.357   4.241   7.512 -1.5735 -0.0581  0.7913
12583SOL    HW239744   5.328   4.217   7.365 -0.5854  2.4355  0.1337
12584SOL     OW39745   6.427   0.024   6.767 -0.0475  0.2058  0.2040
12584SOL    HW139746   6.408  -0.044   6.831 -1.5149  0.8243  0.4485
12584SOL    HW239747   6.519   0.009   6.743  0.0907 -0.9255  1.3544
12585SOL     OW39748   3.505   7.267   7.459 -0.6435  0.3524 -0.0883
12585SOL    HW139749   3.441   7.321   7.413 -0.5388  0.8230  0.3072
12585SOL    HW239750   3.559   7.330   7.507  0.8334  0.0487 -1.2772
12586SOL     OW39751   2.852   3.135   1.681 -0.8168  0.5085 -0.0245
12586SOL    HW139752   2.856   3.160   1.589  1.7534  0.9920  0.1630
12586SOL    HW239753   2.872   3.042   1.682 -0.1826  0.6430  0.0869
12587SOL     OW39754   2.653   0.354   8.325 -0.0938  0.3980 -0.2809
12587SOL    HW139755   2.631   0.416   8.395  0.5453  0.9534 -0.5643
12587SOL    HW239756   2.639   0.268   8.365  0.5027  0.6983  0.6265
12588SOL     OW39757   1.870   3.076   8.281 -0.7080  0.0325  0.0676
12588SOL    HW139758   1.948   3.021   8.293 -0.9431 -0.4174 -0.3938
12588SOL    HW239759   1.862   3.125   8.362 -0.9965 -1.2775  0.8562
12589SOL     OW39760   3.351   7.532   4.654 -0.0448  0.2513 -0.1120
12589SOL    HW139761   3.394   7.448   4.663  1.6740  1.1363  0.3794
12589SOL    HW239762   3.422   7.593   4.633 -1.2597  1.5555 -0.5703
12590SOL     OW39763   8.044   5.249   6.836 -0.7046  0.5764 -0.4763
12590SOL    HW139764   8.140   5.248   6.843 -0.6846  3.5017  1.3315
12590SOL    HW239765   8.018   5.162   6.865  1.3585  0.2892  0.7701
12591SOL     OW39766   1.404   7.145   1.372  0.3038  0.2970 -0.1930
12591SOL    HW139767   1.423   7.111   1.459 -0.2281  0.8875  0.1596
12591SOL    HW239768   1.309   7.156   1.370  0.2550 -0.1451 -1.0124
12592SOL     OW39769   0.351   2.549   8.127  0.1700  0.3265  0.2048
12592SOL    HW139770   0.280   2.506   8.175  1.0343  0.1206  1.3663
12592SOL    HW239771   0.314   2.633   8.099 -0.6909 -0.0069  0.3025
12593SOL     OW39772   1.718   7.205   4.873  0.5040 -0.1778  0.1971
12593SOL    HW139773   1.674   7.185   4.791  1.9284 -1.1716 -0.3735
12593SOL    HW239774   1.724   7.301   4.874  2.5004 -0.1896 -2.0435
12594SOL     OW39775   1.289   7.021   0.232 -0.0265  0.1542  0.9687
12594SOL    HW139776   1.260   7.102   0.191 -3.6302 -0.7572  1.4109
12594SOL    HW239777   1.337   6.975   0.163 -0.6843  1.2681 -0.2716
12595SOL     OW39778   6.857   2.984   3.357  0.1011 -0.0132 -0.1974
12595SOL    HW139779   6.942   3.026   3.347  0.7468 -0.9532  0.8996
12595SOL    HW239780   6.875   2.891   3.342 -1.0760 -0.0541 -1.5646
12596SOL     OW39781   7.565   4.174   1.335  0.5696  0.0713  0.2535
12596SOL    HW139782   7.625   4.249   1.325  1.3314 -0.5717 -0.0752
12596SOL    HW239783   7.614   4.100   1.299 -0.5075 -0.4328 -0.2007
12597SOL     OW39784   5.068   7.374   2.219 -0.6722 -0.0662  0.0987
12597SOL    HW139785   5.080   7.465   2.248  1.7536 -0.4670  0.5362
12597SOL    HW239786   5.079   7.377   2.124  0.7946 -0.0513  0.2444
12598SOL     OW39787   8.091   1.576   7.006  0.1123 -0.2089 -0.0556
12598SOL    HW139788   8.114   1.510   7.071  0.0734  0.3159  0.4971
12598SOL    HW239789   8.146   1.652   7.029 -0.6388  0.3275 -0.0143
12599SOL     OW39790   7.395   3.014   4.796 -0.1187 -0.0316  0.3602
12599SOL    HW139791   7.405   3.102   4.758 -0.6138 -0.1447 -0.0464
12599SOL    HW239792   7.337   2.969   4.735  0.6488 -0.8530  0.2237
12600SOL     OW39793   1.950   1.841   0.224 -0.2510  0.2057  0.0225
12600SOL    HW139794   2.040   1.862   0.199 -0.6808 -0.8694 -2.7423
12600SOL    HW239795   1.905   1.925   0.221  0.1880  0.4221 -0.7886
12601SOL     OW39796   5.791   2.280   3.552  0.0638 -0.1929  0.0006
12601SOL    HW139797   5.793   2.211   3.618  0.5580  0.7027  0.9635
12601SOL    HW239798   5.757   2.356   3.599  0.9982  0.6280 -0.6020
12602SOL     OW39799   0.048   3.566   6.466  0.8392  0.6849 -0.1876
12602SOL    HW139800   0.078   3.597   6.381  0.6277  1.7541  0.1058
12602SOL    HW239801  -0.044   3.593   6.471  0.4722 -0.5375 -0.1521
12603SOL     OW39802   2.112   0.353   3.096 -0.0407  0.6874  0.3782
12603SOL    HW139803   2.077   0.439   3.122  0.4764  0.9262  0.2946
12603SOL    HW239804   2.037   0.294   3.101 -0.5686  1.2965 -0.2856
12604SOL     OW39805   0.559   1.331   7.941 -0.1865 -0.7770  0.2656
12604SOL    HW139806   0.590   1.258   7.887  0.1718 -0.5942  0.2206
12604SOL    HW239807   0.546   1.403   7.878 -0.2617 -0.7167  0.3504
12605SOL     OW39808   3.117   4.327   7.828  0.4692  0.1095  0.5082
12605SOL    HW139809   3.049   4.335   7.895 -0.1766 -1.1738  0.0206
12605SOL    HW239810   3.118   4.413   7.785  0.7233  0.8772  1.9638
12606SOL     OW39811   4.387   1.637   1.111  0.0256 -0.2254 -0.3293
12606SOL    HW139812   4.418   1.726   1.097  0.9866 -0.0738  2.3195
12606SOL    HW239813   4.291   1.644   1.107  0.0784  0.9989  0.1774
12607SOL     OW39814   2.787   4.871   7.523 -0.5509 -0.6053  0.3095
12607SOL    HW139815   2.793   4.788   7.475  0.1199 -1.2030  1.3822
12607SOL    HW239816   2.851   4.862   7.594 -1.1738  0.4365  1.0228
12608SOL     OW39817   2.474   4.109   3.879  0.2065 -0.3003 -0.5542
12608SOL    HW139818   2.394   4.070   3.916  1.1296 -1.8232 -0.0734
12608SOL    HW239819   2.448   4.198   3.855 -1.2048 -0.2001  1.1112
12609SOL     OW39820   5.915   1.079   1.482 -0.1119 -0.5314 -0.8668
12609SOL    HW139821   5.883   1.061   1.570 -1.1819  0.3955 -1.0442
12609SOL    HW239822   5.999   1.033   1.477 -0.8920 -2.1130 -0.0105
12610SOL     OW39823   0.794   2.766   3.255 -0.1504 -0.4097 -0.0033
12610SOL    HW139824   0.785   2.763   3.159 -0.9756 -1.6617  0.0925
12610SOL    HW239825   0.885   2.742   3.271  0.2385  0.6477 -0.4917
12611SOL     OW39826   5.811   8.300   7.378  0.2210 -0.2414  0.3526
12611SOL    HW139827   5.805   8.335   7.289  0.1830  0.0877  0.4843
12611SOL    HW239828   5.901   8.268   7.385  0.5357  0.6769  0.5449
12612SOL     OW39829   0.018   2.799   4.283  0.5975  0.3389  0.0882
12612SOL    HW139830  -0.031   2.768   4.206  0.6487 -0.7223  0.4677
12612SOL    HW239831  -0.008   2.740   4.353  2.7339 -0.5539  0.1997
12613SOL     OW39832   2.188   1.747   1.683  0.2027 -0.5563 -0.0892
12613SOL    HW139833   2.177   1.840   1.660 -0.2604 -0.5857 -0.0013
12613SOL    HW239834   2.178   1.700   1.600  2.9263 -0.3839 -0.6076
12614SOL     OW39835   1.702   8.018   2.462 -0.4516 -0.7018  0.4090
12614SOL    HW139836   1.609   8.023   2.487 -0.0132  1.3571  1.8567
12614SOL    HW239837   1.748   8.003   2.544  0.5879 -0.4626 -0.1203
12615SOL     OW39838   6.706   2.413   5.750  0.2369 -0.0488 -0.0683
12615SOL    HW139839   6.786   2.376   5.711  0.2413  0.5537 -0.6423
12615SOL    HW239840   6.638   2.349   5.728  0.7210 -1.0837  1.2899
12616SOL     OW39841   6.371   5.105   6.905 -0.1639  0.1904  0.0065
12616SOL    HW139842   6.328   5.189   6.922 -1.2778  0.2137 -2.4561
12616SOL    HW239843   6.394   5.108   6.812  1.0880 -1.6758  0.2016
12617SOL     OW39844   8.815   4.695   6.184  0.4111 -0.4577 -0.3078
12617SOL    HW139845   8.836   4.725   6.096  1.1659 -0.7343 -0.2370
12617SOL    HW239846   8.837   4.770   6.240 -0.7003 -0.0437 -0.4021
12618SOL     OW39847   0.431   7.661   3.509  0.3717 -0.6354 -0.0500
12618SOL    HW139848   0.406   7.689   3.597 -1.9837 -0.3890 -0.7390
12618SOL    HW239849   0.399   7.571   3.503 -1.6922  0.1272 -1.4190
12619SOL     OW39850   3.694   7.891   5.019 -0.3075 -0.2321 -0.0890
12619SOL    HW139851   3.622   7.910   4.959  0.7808  1.2013 -1.0085
12619SOL    HW239852   3.650   7.868   5.102 -1.8132 -0.8549 -1.0105
12620SOL     OW39853   4.421   2.109   3.039 -0.7295 -0.3850 -0.3557
12620SOL    HW139854   4.428   2.023   2.998  0.2056 -0.6506  0.3190
12620SOL    HW239855   4.380   2.092   3.124  1.2118 -0.4827  0.6201
12621SOL     OW39856   6.871   4.428   3.505  0.5846  0.6746 -0.3764
12621SOL    HW139857   6.954   4.384   3.527  0.2917  0.3523  0.1040
12621SOL    HW239858   6.883   4.458   3.415  1.6968  1.7203  0.0891
12622SOL     OW39859   4.882   8.721   0.644 -0.0492 -0.0245  0.0488
12622SOL    HW139860   4.905   8.781   0.573  1.9912  0.3694  0.9904
12622SOL    HW239861   4.878   8.776   0.722  0.0763 -0.8244  0.6316
12623SOL     OW39862   6.592   3.502   8.808  0.1847  0.5196 -0.5723
12623SOL    HW139863   6.570   3.589   8.774  0.0800  0.2848 -1.1216
12623SOL    HW239864   6.509   3.455   8.809  0.2185  0.4628 -0.1524
12624SOL     OW39865   0.658   4.768   2.195  0.4259 -0.3008  0.2827
12624SOL    HW139866   0.600   4.844   2.196  0.4735 -0.1775  3.3814
12624SOL    HW239867   0.746   4.806   2.196  0.4488 -0.3080  2.2403
12625SOL     OW39868   5.728   6.523   0.394  0.0027  0.0896  0.2081
12625SOL    HW139869   5.809   6.516   0.443 -0.1508 -1.3670  0.3146
12625SOL    HW239870   5.663   6.550   0.459  0.1333 -0.1279  0.4321
12626SOL     OW39871   6.883   8.719   1.758  0.4845  0.2444 -0.7894
12626SOL    HW139872   6.866   8.754   1.845 -1.9044 -0.1885 -0.9936
12626SOL    HW239873   6.862   8.626   1.765 -0.0445  0.2585 -1.8700
12627SOL     OW39874   4.128   8.597   7.317  0.2597  0.0843 -0.2559
12627SOL    HW139875   4.085   8.621   7.234 -0.6909  1.4786  0.5982
12627SOL    HW239876   4.158   8.508   7.303  0.4072  0.3877 -2.2276
12628SOL     OW39877   6.409   1.153   3.778 -0.2072 -0.2566  0.0192
12628SOL    HW139878   6.314   1.139   3.783 -0.2059 -0.0657  0.6983
12628SOL    HW239879   6.428   1.214   3.849  0.5580 -1.0427  0.5138
12629SOL     OW39880   1.040   4.399   8.545 -0.4926 -0.3391  0.2057
12629SOL    HW139881   1.114   4.340   8.533 -0.3780  0.0508 -1.2653
12629SOL    HW239882   1.060   4.474   8.489 -2.2268 -0.4595 -0.6622
12630SOL     OW39883   7.922   5.483   5.368  0.2863  0.2481 -0.2055
12630SOL    HW139884   7.998   5.441   5.327  0.9318  1.0428  0.1347
12630SOL    HW239885   7.955   5.515   5.452 -0.8593 -0.8264  0.6997
12631SOL     OW39886   5.313   8.425   4.127  0.1945 -0.1641  0.3333
12631SOL    HW139887   5.376   8.489   4.092  0.5445 -1.5664 -1.7701
12631SOL    HW239888   5.230   8.473   4.131  0.2589  0.2445 -1.9906
12632SOL     OW39889   1.420   5.756   8.848  0.0598 -0.1512 -0.2301
12632SOL    HW139890   1.417   5.851   8.862  2.0087 -0.3766  2.4379
12632SOL    HW239891   1.349   5.739   8.786 -1.8544  2.7438  0.9546
12633SOL     OW39892   2.373   6.491   4.487 -0.1778 -0.1651  0.2821
12633SOL    HW139893   2.403   6.526   4.402  2.2853 -0.0166  1.1315
12633SOL    HW239894   2.354   6.569   4.539 -2.8706 -0.2473 -0.4130
12634SOL     OW39895   5.941   2.208   7.717 -0.6078  0.1498 -0.1565
12634SOL    HW139896   5.879   2.277   7.740 -0.0181  1.1660 -1.4205
12634SOL    HW239897   5.995   2.248   7.648  0.6373 -1.1208  0.0468
12635SOL     OW39898   3.482   4.487   5.723  0.4396 -0.2189 -0.2838
12635SOL    HW139899   3.420   4.547   5.765  0.2750  0.3111 -1.2608
12635SOL    HW239900   3.444   4.400   5.738  0.0860  0.0079  0.1650
12636SOL     OW39901   2.622   3.944   6.148  0.4707  0.1710 -0.4621
12636SOL    HW139902   2.649   3.882   6.081  2.6486  0.0542  0.4525
12636SOL    HW239903   2.704   3.973   6.188 -0.7382  0.6001  1.8311
12637SOL     OW39904   8.687   4.401   5.651 -0.1653  0.0520  0.2144
12637SOL    HW139905   8.618   4.345   5.687 -0.0806  0.8512  1.7306
12637SOL    HW239906   8.646   4.486   5.641  0.1828  0.1527 -0.3784
12638SOL     OW39907   4.409   5.935   5.676 -0.2740  0.0345 -0.7945
12638SOL    HW139908   4.426   5.978   5.759  0.5712 -3.5240  1.0700
12638SOL    HW239909   4.314   5.931   5.669 -0.3599  1.1839 -0.5592
12639SOL     OW39910   0.397   8.699   0.637 -0.2361 -0.4382 -0.3919
12639SOL    HW139911   0.404   8.639   0.563 -1.7061  1.2869 -2.0239
12639SOL    HW239912   0.461   8.767   0.619  0.6183 -0.8551  0.8714
12640SOL     OW39913   3.460   8.670   2.865 -0.1450 -0.0290 -0.2354
12640SOL    HW139914   3.512   8.747   2.843  0.7670 -1.0482 -1.7784
12640SOL    HW239915   3.380   8.679   2.813 -0.3708  0.2299  0.1496
12641SOL     OW39916   0.771   5.428   1.390  0.1239 -1.0162  0.1025
12641SOL    HW139917   0.736   5.515   1.372 -0.3358 -0.3919  3.3658
12641SOL    HW239918   0.718   5.369   1.337 -2.3782  0.3890  0.8491
12642SOL     OW39919   4.856   0.712   2.157 -0.1315 -0.2829  0.0361
12642SOL    HW139920   4.904   0.730   2.238  2.2109  1.6553 -1.6446
12642SOL    HW239921   4.893   0.630   2.125 -0.5441 -0.6724  0.5456
12643SOL     OW39922   7.723   5.422   0.186  0.0811 -0.0083 -0.0795
12643SOL    HW139923   7.787   5.408   0.256 -0.1140  2.0075  0.5409
12643SOL    HW239924   7.706   5.334   0.152  1.3061 -0.8621  1.3933
12644SOL     OW39925   5.555   8.390   5.855 -0.9271 -0.4467 -0.1524
12644SOL    HW139926   5.488   8.458   5.862  0.9885  1.4913  0.5133
12644SOL    HW239927   5.599   8.407   5.771  0.7880  0.4085  0.8614
12645SOL     OW39928   3.969   8.613   0.583  0.3499 -0.3709  0.3011
12645SOL    HW139929   3.987   8.705   0.600 -0.5895 -0.1655  0.2583
12645SOL    HW239930   4.055   8.572   0.574  0.7788  0.3900  0.8929
12646SOL     OW39931   1.708   4.977   5.293 -0.3862  0.1363 -0.1634
12646SOL    HW139932   1.614   4.991   5.302 -0.1190  1.1771  1.2759
12646SOL    HW239933   1.725   4.896   5.341 -0.4558  0.2937  0.1287
12647SOL     OW39934   7.401   3.035   7.201  0.0128 -0.8816 -0.0423
12647SOL    HW139935   7.366   2.956   7.161  0.9601 -1.1233 -0.4461
12647SOL    HW239936   7.496   3.024   7.195  0.2301 -1.0226  2.4877
12648SOL     OW39937   7.680   7.288   6.442  0.1598  0.0081  0.1935
12648SOL    HW139938   7.750   7.255   6.498 -0.0996  0.5394  0.8395
12648SOL    HW239939   7.694   7.244   6.358  1.4190  0.2931  0.2294
12649SOL     OW39940   0.312   7.419   3.982 -0.4149  0.2268 -0.3406
12649SOL    HW139941   0.347   7.460   3.902 -0.2360  2.2620  0.7185
12649SOL    HW239942   0.378   7.355   4.006  0.6580  1.2048 -0.5848
12650SOL     OW39943   4.710   4.208   5.509  0.2852  0.1646 -0.4624
12650SOL    HW139944   4.666   4.232   5.590  1.7583  1.5819 -0.0270
12650SOL    HW239945   4.651   4.238   5.440 -0.6689 -0.4541  0.0621
12651SOL     OW39946   4.738   3.942   4.924 -0.7725  0.5176 -0.4900
12651SOL    HW139947   4.721   3.938   4.830 -1.5465 -1.0333 -0.3285
12651SOL    HW239948   4.832   3.925   4.932 -0.6730  0.8083 -0.9854
12652SOL     OW39949   0.882   2.793   6.151 -0.8047 -0.3785  0.3506
12652SOL    HW139950   0.884   2.888   6.161 -2.5180 -0.5068  2.9955
12652SOL    HW239951   0.893   2.779   6.057 -0.9309  2.4446 -0.1897
12653SOL     OW39952   1.615   6.634   8.544 -0.1008 -0.3009 -0.2266
12653SOL    HW139953   1.550   6.700   8.571 -0.3511  0.0391 -1.5684
12653SOL    HW239954   1.565   6.574   8.489  0.0798 -1.7697  1.1389
12654SOL     OW39955   7.912   7.253   4.767  0.4529  0.2369 -0.2067
12654SOL    HW139956   7.949   7.322   4.714 -0.7923  1.9859  1.0588
12654SOL    HW239957   7.829   7.231   4.724  0.9506 -0.6496 -0.7296
12655SOL     OW39958   8.685   0.309   3.817 -0.7289 -0.0103 -0.0848
12655SOL    HW139959   8.619   0.337   3.880 -0.0324  0.9477  0.2485
12655SOL    HW239960   8.764   0.294   3.870 -0.3500  0.0661 -0.6193
12656SOL     OW39961   8.253   3.035   8.562 -0.2203 -0.0223  0.3311
12656SOL    HW139962   8.341   3.018   8.528 -0.1290 -1.4726  1.2098
12656SOL    HW239963   8.265   3.103   8.627  0.0060  0.8531 -0.5971
12657SOL     OW39964   2.984   1.122   6.357  0.5342 -0.2215 -0.7230
12657SOL    HW139965   3.060   1.092   6.407  0.6508 -1.5130 -1.6231
12657SOL    HW239966   2.963   1.049   6.298  0.7986  1.4052 -3.0034
12658SOL     OW39967   3.717   3.612   0.423 -0.5217 -0.1161 -0.2545
12658SOL    HW139968   3.764   3.556   0.362 -0.1566 -0.6673  0.5058
12658SOL    HW239969   3.632   3.569   0.434 -0.0274 -0.8844  0.7825
12659SOL     OW39970   3.407   1.050   8.816  0.0683  0.2629 -0.0367
12659SOL    HW139971   3.457   1.068   8.737 -0.1504 -1.5910 -0.6437
12659SOL    HW239972   3.346   0.981   8.791  0.2928 -0.6919  1.8612
12660SOL     OW39973   2.832   3.328   8.448 -0.7333  0.2194  0.0591
12660SOL    HW139974   2.902   3.390   8.470 -0.3591  0.4915 -1.7714
12660SOL    HW239975   2.878   3.245   8.435 -0.8391  0.2366 -0.4315
12661SOL     OW39976   4.189   2.796   4.850  0.0426 -0.2185  0.1874
12661SOL    HW139977   4.191   2.732   4.779  0.8748  1.9903 -1.9105
12661SOL    HW239978   4.281   2.818   4.865 -0.1469 -0.3818  1.7398
12662SOL     OW39979   6.391   8.761   1.599  0.2168 -0.1455 -0.1466
12662SOL    HW139980   6.318   8.700   1.612  0.4833 -0.7394 -1.2888
12662SOL    HW239981   6.421   8.781   1.687 -0.8701 -0.4506  0.3120
12663SOL     OW39982   4.715   5.803   2.248  0.4155 -0.8522  0.1001
12663SOL    HW139983   4.716   5.749   2.328 -1.6538  1.0415  1.5408
12663SOL    HW239984   4.654   5.758   2.190  1.3513 -1.8353 -0.1749
12664SOL     OW39985   5.101   4.645   3.453 -0.2503  0.5204 -0.0373
12664SOL    HW139986   5.070   4.733   3.473 -1.8359  0.0578 -0.3608
12664SOL    HW239987   5.099   4.640   3.358 -0.0520  0.1642 -0.0236
12665SOL     OW39988   8.667   5.120   1.088  0.0542 -0.1698  0.1267
12665SOL    HW139989   8.613   5.068   1.147  1.0267 -0.6659  0.5999
12665SOL    HW239990   8.674   5.067   1.009 -0.7719  0.2392 -0.2330
12666SOL     OW39991   4.157   4.169   2.617 -0.4202  0.1455  0.1523
12666SOL    HW139992   4.183   4.254   2.584 -0.4355  0.7192  1.5492
12666SOL    HW239993   4.147   4.182   2.711 -0.0681 -1.4895  0.4431
12667SOL     OW39994   5.993   6.760   2.305  0.4829  0.1602 -0.2037
12667SOL    HW139995   5.927   6.710   2.354  0.5211  0.1907 -0.1212
12667SOL    HW239996   6.036   6.695   2.249  0.7347  0.0476  0.1201
12668SOL     OW39997   2.883   1.892   5.504 -0.2902  0.0978 -0.1093
12668SOL    HW139998   2.934   1.822   5.546  0.7884  0.2385 -1.1172
12668SOL    HW239999   2.911   1.890   5.412 -2.9805 -0.5813 -1.0141
12669SOL     OW40000   5.743   7.187   4.919 -0.0571  0.1026  0.3124
12669SOL    HW140001   5.824   7.150   4.955 -0.7480 -1.1850  0.5875
12669SOL    HW240002   5.677   7.169   4.986 -0.3845  2.1874  0.6363
12670SOL     OW40003   3.510   4.351   1.575  0.0652 -0.2717  0.4272
12670SOL    HW140004   3.546   4.265   1.596 -0.0034 -0.4352 -0.1104
12670SOL    HW240005   3.505   4.352   1.479 -0.9284 -0.0662  0.4761
12671SOL     OW40006   8.584   2.792   8.237  0.5533 -0.3187 -0.2344
12671SOL    HW140007   8.602   2.747   8.319  1.2590  1.2691  0.5264
12671SOL    HW240008   8.576   2.722   8.172  0.7504 -1.5583  1.0408
12672SOL     OW40009   7.665   6.348   1.556 -0.1259  0.5457 -0.6060
12672SOL    HW140010   7.730   6.280   1.542  0.5657  0.8734  0.8501
12672SOL    HW240011   7.585   6.314   1.515  0.5293 -0.5948 -0.9593
12673SOL     OW40012   4.492   8.750   4.910 -0.0483  0.6483 -0.1269
12673SOL    HW140013   4.520   8.841   4.913 -0.9492  0.9482 -0.3952
12673SOL    HW240014   4.433   8.740   4.985  1.7329 -0.3309  1.2195
12674SOL     OW40015   5.386   1.030   4.408 -0.1769  0.3009  0.0226
12674SOL    HW140016   5.370   0.939   4.383 -0.1232  0.7033 -1.5557
12674SOL    HW240017   5.471   1.051   4.368 -0.1347  1.0119  0.4661
12675SOL     OW40018   2.212   3.392   4.710 -0.0870  0.4379 -0.7783
12675SOL    HW140019   2.255   3.474   4.688  0.8526  0.3382  0.5724
12675SOL    HW240020   2.276   3.344   4.763 -1.4599 -0.1611  0.4277
12676SOL     OW40021   5.075   7.123   6.474 -0.1990  0.1730  0.3701
12676SOL    HW140022   5.012   7.123   6.402 -1.4307 -1.6948  1.3700
12676SOL    HW240023   5.098   7.215   6.486 -1.1801  0.6862 -1.3510
12677SOL     OW40024   2.599   5.735   3.844 -0.1222  0.9212  0.2575
12677SOL    HW140025   2.668   5.697   3.789  0.0788  1.5460  0.0654
12677SOL    HW240026   2.633   5.730   3.933 -0.5736 -0.3665  0.3672
12678SOL     OW40027   8.693   6.621   6.552 -0.3229 -0.4658  0.0150
12678SOL    HW140028   8.642   6.676   6.611 -1.2318 -0.7586 -0.4823
12678SOL    HW240029   8.755   6.576   6.609 -2.4771 -2.2762  1.1170
12679SOL     OW40030   1.893   3.316   3.373  0.1780 -0.3396  0.1134
12679SOL    HW140031   1.861   3.391   3.323  1.1898 -0.6749 -1.0762
12679SOL    HW240032   1.947   3.354   3.442  1.5627  0.0341 -1.1196
12680SOL     OW40033   0.452   8.033   4.601  0.0822 -1.0640  0.0904
12680SOL    HW140034   0.427   8.007   4.690  0.3976 -2.2085 -0.1396
12680SOL    HW240035   0.547   8.024   4.599  0.0600 -1.2257 -0.4157
12681SOL     OW40036   1.864   1.780   1.122  0.3654  0.0229  0.1632
12681SOL    HW140037   1.952   1.809   1.098  0.4043  0.2086  0.5172
12681SOL    HW240038   1.863   1.784   1.218  0.6463 -1.9715  0.2802
12682SOL     OW40039   3.883   7.450   4.921  0.1363 -0.1820  0.0731
12682SOL    HW140040   3.820   7.495   4.977 -0.2939  0.7731 -1.1210
12682SOL    HW240041   3.967   7.461   4.964 -0.1189  0.9385  0.3049
12683SOL     OW40042   1.352   8.575   5.503  0.5027  0.1668 -0.0745
12683SOL    HW140043   1.431   8.555   5.452 -0.0091 -2.4137 -0.0102
12683SOL    HW240044   1.285   8.595   5.437  0.5697 -0.2931 -0.2893
12684SOL     OW40045   6.705   6.617   2.437  0.0620  0.1835 -0.1345
12684SOL    HW140046   6.642   6.685   2.415 -2.0092 -1.6687 -0.2334
12684SOL    HW240047   6.726   6.576   2.353  0.1044 -0.3073  0.1152
12685SOL     OW40048   4.050   2.090   1.524 -0.2297  0.3987 -0.5652
12685SOL    HW140049   4.067   2.184   1.517 -0.8230  0.6507  0.9726
12685SOL    HW240050   4.137   2.050   1.531  0.0722  0.7077 -2.2992
12686SOL     OW40051   0.215   3.055   4.503 -0.2595 -0.2410 -0.3364
12686SOL    HW140052   0.210   2.960   4.490 -2.5566 -0.0226 -1.5676
12686SOL    HW240053   0.283   3.084   4.442 -1.8669 -0.7801 -2.5005
12687SOL     OW40054   8.278   3.265   8.770  0.0654 -0.0278  0.1703
12687SOL    HW140055   8.248   3.261   8.861 -1.5738  0.4482 -0.3106
12687SOL    HW240056   8.355   3.320   8.773 -1.0085  1.5126  1.0676
12688SOL     OW40057   8.826   7.633   3.836 -0.3694 -0.0633 -0.4028
12688SOL    HW140058   8.899   7.688   3.865 -0.6026  1.2551 -2.1113
12688SOL    HW240059   8.756   7.652   3.898  0.3425 -0.3777  0.5166
12689SOL     OW40060   3.500   8.177   3.118 -0.8635 -0.0162  0.0816
12689SOL    HW140061   3.515   8.208   3.029  0.5940 -3.3238 -1.0041
12689SOL    HW240062   3.453   8.094   3.107 -0.5291 -0.5885  2.3629
12690SOL     OW40063   4.272   5.328   1.032 -0.5952  0.2044  0.4939
12690SOL    HW140064   4.198   5.276   1.064  0.4569  0.7048  4.1662
12690SOL    HW240065   4.305   5.373   1.110  0.8562  3.4927 -1.8213
12691SOL     OW40066   8.681   6.807   4.446 -0.5113 -0.0352  0.1179
12691SOL    HW140067   8.586   6.823   4.444 -0.4957  0.2560  1.0612
12691SOL    HW240068   8.719   6.889   4.478  0.0509 -0.1809 -0.1756
12692SOL     OW40069   6.910   6.580   4.411  0.7834 -0.1798  0.1626
12692SOL    HW140070   6.964   6.596   4.488  0.9488  0.6254 -0.1049
12692SOL    HW240071   6.967   6.600   4.336  0.1436  0.6832 -0.1219
12693SOL     OW40072   5.963   2.837   7.541 -0.2400 -0.2567  0.7106
12693SOL    HW140073   5.886   2.892   7.556 -1.3449 -1.6744  0.4492
12693SOL    HW240074   6.000   2.869   7.459  0.2566  1.2837  1.4856
12694SOL     OW40075   1.762   3.280   4.521 -0.4450 -0.1591 -0.3203
12694SOL    HW140076   1.689   3.326   4.563 -0.8140 -0.8713 -0.1443
12694SOL    HW240077   1.731   3.189   4.514 -0.0029 -0.2479 -1.2524
12695SOL     OW40078   2.475   1.896   1.279 -0.0044  0.0048  0.4991
12695SOL    HW140079   2.541   1.959   1.310 -0.9479  2.3520 -1.8548
12695SOL    HW240080   2.391   1.936   1.303 -0.6393 -1.0718  0.1472
12696SOL     OW40081   5.725   6.700   8.360 -0.2548  0.1665  0.4402
12696SOL    HW140082   5.765   6.774   8.314  2.6154 -1.0352  0.7994
12696SOL    HW240083   5.700   6.735   8.445 -2.7052  1.6224 -0.7626
12697SOL     OW40084   0.929   7.556   6.742  0.9091  0.0456 -0.3878
12697SOL    HW140085   0.946   7.462   6.739 -3.3372 -1.0093  0.7389
12697SOL    HW240086   0.900   7.577   6.653 -2.0304 -0.8411  0.2346
12698SOL     OW40087   8.277   5.541   6.397  0.1648  0.4852  0.5967
12698SOL    HW140088   8.182   5.550   6.402 -0.0044  1.3489 -2.1335
12698SOL    HW240089   8.294   5.514   6.307  2.5711  1.6984  0.5851
12699SOL     OW40090   3.664   0.492   2.889  0.6418  0.2085  0.1323
12699SOL    HW140091   3.743   0.454   2.927 -0.9715 -0.6571  2.9131
12699SOL    HW240092   3.624   0.541   2.961 -0.1215  2.7953 -1.9027
12700SOL     OW40093   8.633   4.936   4.897  0.3778  0.6442 -0.6439
12700SOL    HW140094   8.542   4.955   4.877 -0.0858 -2.2576 -1.7339
12700SOL    HW240095   8.631   4.902   4.987 -0.1434 -2.1263 -1.6227
12701SOL     OW40096   8.462   5.902   3.376  0.1304  0.1342  0.0435
12701SOL    HW140097   8.382   5.947   3.406 -0.2125  0.0217 -0.6889
12701SOL    HW240098   8.525   5.918   3.446 -0.0582  1.5619 -0.0878
12702SOL     OW40099   0.836   7.482   8.247 -0.0668 -0.0195  0.4116
12702SOL    HW140100   0.796   7.506   8.331  0.7959 -0.3292  0.9166
12702SOL    HW240101   0.919   7.441   8.270  1.0459  1.5235 -0.6553
12703SOL     OW40102   3.933   2.171   5.056  0.1866  0.5772  0.0251
12703SOL    HW140103   3.846   2.209   5.068 -0.2041  0.2533 -1.5683
12703SOL    HW240104   3.964   2.210   4.974  0.7232 -0.7993 -0.4390
12704SOL     OW40105   8.234   8.173   1.123 -0.0241  0.1485  0.0872
12704SOL    HW140106   8.185   8.096   1.094 -0.1428  0.5554 -0.8216
12704SOL    HW240107   8.315   8.138   1.160  0.8857 -0.3561 -2.1909
12705SOL     OW40108   7.051   0.324   3.190  0.0878  0.0491 -0.3628
12705SOL    HW140109   7.138   0.336   3.227 -0.3913 -1.9635  1.6841
12705SOL    HW240110   6.993   0.373   3.250 -0.2528  1.3435 -1.6838
12706SOL     OW40111   7.946   4.041   2.416 -0.2656 -0.3700  0.1408
12706SOL    HW140112   7.895   3.974   2.371 -1.2297 -0.5638  1.4547
12706SOL    HW240113   7.941   4.017   2.509  1.2803  0.2558  0.4312
12707SOL     OW40114   1.207   7.123   2.008 -0.5707 -0.1376 -0.3279
12707SOL    HW140115   1.228   7.106   1.916  0.1614  0.8212 -0.3573
12707SOL    HW240116   1.156   7.046   2.036 -2.2022  0.2582 -1.9696
12708SOL     OW40117   2.019   8.035   2.183  0.4677 -0.0518 -0.4496
12708SOL    HW140118   1.965   7.976   2.130 -0.0120  0.3856 -0.4511
12708SOL    HW240119   2.025   7.992   2.268 -4.0689  2.1585  1.2568
12709SOL     OW40120   0.966   7.825   3.429  0.1900 -0.1476  0.1484
12709SOL    HW140121   0.914   7.804   3.351  2.2192 -1.5622 -0.9107
12709SOL    HW240122   0.909   7.802   3.502 -0.8215 -1.3099 -0.9545
12710SOL     OW40123   4.336   3.206   4.420 -0.0277  0.2962 -0.5147
12710SOL    HW140124   4.424   3.190   4.453  0.3501  0.4225 -1.4301
12710SOL    HW240125   4.342   3.186   4.327 -1.0764 -0.1044 -0.5075
12711SOL     OW40126   8.667   1.334   7.665 -0.4984  0.3499  0.3087
12711SOL    HW140127   8.630   1.315   7.579  0.4343  0.6908 -0.1816
12711SOL    HW240128   8.635   1.264   7.721  1.1983 -1.5652 -0.9822
12712SOL     OW40129   5.081   7.866   7.449 -0.1716 -0.5157  0.5549
12712SOL    HW140130   5.114   7.779   7.470 -2.0892 -1.5308 -0.4250
12712SOL    HW240131   5.155   7.924   7.467  2.3275 -2.6603 -1.9387
12713SOL     OW40132   5.899   1.398   6.547 -0.2070 -0.3075  0.1481
12713SOL    HW140133   5.828   1.448   6.508 -0.0379  0.2662  0.5650
12713SOL    HW240134   5.976   1.422   6.497 -0.1736 -0.3609  0.1730
12714SOL     OW40135   4.770   5.338   7.907 -0.1112  0.3597  0.3842
12714SOL    HW140136   4.826   5.266   7.879  1.2122 -0.2798  4.0131
12714SOL    HW240137   4.786   5.407   7.843  1.5849 -1.2584 -1.0725
12715SOL     OW40138   2.696   7.114   8.042  0.1734  0.5784  0.7191
12715SOL    HW140139   2.782   7.104   8.083 -0.1951  1.8232  1.8172
12715SOL    HW240140   2.641   7.050   8.086 -0.3039  2.1300  2.4625
12716SOL     OW40141   3.941   2.484   5.542 -0.2078 -0.1842 -0.6406
12716SOL    HW140142   3.856   2.453   5.513  0.3777 -1.6920 -0.8579
12716SOL    HW240143   3.999   2.469   5.467  0.6482 -1.0602  0.1698
12717SOL     OW40144   7.615   3.995   5.829 -0.1439  0.0741 -0.3105
12717SOL    HW140145   7.532   4.029   5.797 -0.6290  1.1390  1.9211
12717SOL    HW240146   7.602   3.900   5.833 -0.9631  0.1667 -0.6899
12718SOL     OW40147   1.272   0.734   5.909  0.4384  0.2862 -0.3412
12718SOL    HW140148   1.176   0.730   5.899  0.3637  0.1939  0.3000
12718SOL    HW240149   1.285   0.797   5.980  0.9078  0.9898 -1.0481
12719SOL     OW40150   6.593   6.840   6.871 -0.4646 -0.2534 -0.2456
12719SOL    HW140151   6.616   6.901   6.941  0.1790 -1.1049  0.3025
12719SOL    HW240152   6.586   6.755   6.914  0.3164 -0.8674 -1.2598
12720SOL     OW40153   3.441   1.742   3.825 -0.2168 -0.9649  0.4623
12720SOL    HW140154   3.509   1.785   3.772 -0.7709  0.1319  0.5975
12720SOL    HW240155   3.460   1.770   3.914 -2.4560  1.8142  0.2335
12721SOL     OW40156   0.471   3.117   8.388  0.3748 -0.7430 -0.2200
12721SOL    HW140157   0.380   3.123   8.358  0.0360 -2.2194  0.3721
12721SOL    HW240158   0.521   3.094   8.309  0.6379  2.1805 -1.0119
12722SOL     OW40159   7.087   3.932   6.345 -0.1020 -0.2515 -0.3844
12722SOL    HW140160   7.119   4.014   6.309  2.2612 -1.7524 -1.9362
12722SOL    HW240161   7.048   3.886   6.270  2.8956 -2.4749 -0.7588
12723SOL     OW40162   6.970   7.334   0.490  0.1823 -0.4270  0.3333
12723SOL    HW140163   7.011   7.299   0.411  0.7703 -0.2155  0.5389
12723SOL    HW240164   7.025   7.301   0.562 -1.0284 -1.6232  0.7598
12724SOL     OW40165   1.362   1.929   7.317  0.6769 -0.6494 -0.5446
12724SOL    HW140166   1.406   1.881   7.387  0.8727 -1.4502 -1.2032
12724SOL    HW240167   1.311   1.863   7.271  1.6751 -0.4138 -2.0451
12725SOL     OW40168   1.528   6.227   8.219  0.2624  0.3944  0.1684
12725SOL    HW140169   1.570   6.271   8.146 -0.5445 -0.8908 -1.1289
12725SOL    HW240170   1.591   6.160   8.247 -0.2440 -0.4981 -0.7547
12726SOL     OW40171   5.543   4.193   8.385  0.0544 -0.0823 -0.5919
12726SOL    HW140172   5.452   4.166   8.391  0.3148 -0.8357  0.1116
12726SOL    HW240173   5.539   4.288   8.374 -0.8141 -0.1268 -0.6978
12727SOL     OW40174   8.800   0.437   8.434  0.2835 -0.1490 -0.1851
12727SOL    HW140175   8.889   0.446   8.470  0.2993  0.8153 -0.4397
12727SOL    HW240176   8.792   0.344   8.414  1.6813 -0.0904 -1.2439
12728SOL     OW40177   4.261   5.121   4.475  0.5888 -0.5222  0.4035
12728SOL    HW140178   4.177   5.095   4.437  0.4707  0.3674  0.0108
12728SOL    HW240179   4.237   5.175   4.551  0.8051 -0.6000  0.5269
12729SOL     OW40180   6.503   1.614   3.779 -0.4152  0.0339 -0.3503
12729SOL    HW140181   6.455   1.578   3.704 -0.0561  0.5478 -0.8328
12729SOL    HW240182   6.565   1.545   3.803 -0.5296 -0.1329 -0.5273
12730SOL     OW40183   7.015   3.223   8.568  0.2795 -0.8485 -0.0023
12730SOL    HW140184   7.088   3.218   8.505 -1.8854  0.3291 -2.8433
12730SOL    HW240185   6.937   3.235   8.513 -1.4656  4.2095  2.9010
12731SOL     OW40186   2.787   6.635   6.991  0.2158  0.2137 -0.0372
12731SOL    HW140187   2.716   6.652   7.053  0.1283  2.2192 -0.6348
12731SOL    HW240188   2.757   6.560   6.940 -0.0852 -0.9318  1.7271
12732SOL     OW40189   0.425   4.409   0.640 -0.4014 -0.2874  0.0307
12732SOL    HW140190   0.478   4.372   0.570 -0.2534  0.7766 -0.4265
12732SOL    HW240191   0.464   4.494   0.659 -1.0797 -0.1057  0.6758
12733SOL     OW40192   5.595   8.362   7.729 -0.6483 -0.1731  0.7137
12733SOL    HW140193   5.555   8.448   7.745  0.3053  0.5775 -0.7275
12733SOL    HW240194   5.631   8.336   7.814  1.5379  2.1896  0.6299
12734SOL     OW40195   1.660   3.167   6.707  0.3146  0.7375 -0.3675
12734SOL    HW140196   1.612   3.100   6.756 -1.7491  1.4078 -1.3774
12734SOL    HW240197   1.657   3.245   6.763 -0.5245  1.0132 -0.7874
12735SOL     OW40198   1.071   8.313   4.560  0.6439 -0.8183 -0.0278
12735SOL    HW140199   1.092   8.224   4.533 -0.5717 -1.3904  0.8232
12735SOL    HW240200   0.986   8.331   4.522  1.2374  0.3148 -0.8838
12736SOL     OW40201   2.090   6.695   5.914 -0.5972 -0.2118 -0.0208
12736SOL    HW140202   2.180   6.694   5.947 -0.5468 -0.2004 -0.1601
12736SOL    HW240203   2.099   6.706   5.819 -0.7611  0.5147  0.0358
12737SOL     OW40204   5.056   5.939   7.172 -0.8463 -0.2524 -0.1828
12737SOL    HW140205   5.144   5.942   7.135 -0.8484  1.0777 -0.1093
12737SOL    HW240206   5.068   5.902   7.260 -0.0783  1.6674  0.5596
12738SOL     OW40207   3.372   2.334   7.658  0.0098  0.3630 -1.2086
12738SOL    HW140208   3.329   2.263   7.705 -0.4741  0.7389 -1.0791
12738SOL    HW240209   3.331   2.414   7.691  1.8809  0.8514  0.0893
12739SOL     OW40210   5.229   3.657   5.405 -0.3316  0.0223  0.6856
12739SOL    HW140211   5.169   3.600   5.358 -0.0243 -0.1237  0.4665
12739SOL    HW240212   5.233   3.620   5.494  1.0185 -1.2175  0.1607
12740SOL     OW40213   8.409   6.938   4.482 -0.2179  0.5132  0.6998
12740SOL    HW140214   8.348   7.011   4.491 -0.6982  0.3378 -0.8046
12740SOL    HW240215   8.353   6.863   4.462  0.2934 -0.2228  1.9585
12741SOL     OW40216   1.363   2.385   6.957  0.3219  0.1894  0.3157
12741SOL    HW140217   1.399   2.474   6.955 -1.2829  0.8913 -2.3818
12741SOL    HW240218   1.440   2.329   6.970  1.5710  1.8632  0.5655
12742SOL     OW40219   8.637   2.423   0.327  0.4504  0.2562  0.1147
12742SOL    HW140220   8.556   2.474   0.337  0.8876  1.1992 -1.0136
12742SOL    HW240221   8.699   2.484   0.289  2.0378 -0.1449  1.9014
12743SOL     OW40222   1.547   1.795   8.894 -0.1830  0.0715 -0.7530
12743SOL    HW140223   1.520   1.733   8.825 -0.2156  0.4322 -1.0706
12743SOL    HW240224   1.567   1.740   8.969  0.2655 -0.3619 -1.1843
12744SOL     OW40225   2.619   1.484   6.160  0.0412 -0.5888 -0.2207
12744SOL    HW140226   2.671   1.408   6.187 -1.3641 -1.1394  1.1055
12744SOL    HW240227   2.657   1.557   6.208 -0.0726 -0.9001  0.3550
12745SOL     OW40228   5.501   6.321   8.196 -0.4532 -0.3727  0.1833
12745SOL    HW140229   5.543   6.321   8.110 -1.2842  0.4554 -0.2314
12745SOL    HW240230   5.574   6.329   8.258  0.0120  1.2876 -0.5300
12746SOL     OW40231   7.427   6.915   7.598 -0.0630 -0.2114  0.4487
12746SOL    HW140232   7.355   6.954   7.648  0.1088  0.8016 -0.0564
12746SOL    HW240233   7.485   6.989   7.580  1.0877 -1.0179  0.8270
12747SOL     OW40234   1.903   7.011   0.849 -0.2434 -0.0588 -0.3956
12747SOL    HW140235   1.974   6.964   0.804  0.3496  1.4584 -1.1330
12747SOL    HW240236   1.829   7.007   0.788  0.2136  1.0332 -1.0561
12748SOL     OW40237   3.878   1.957   2.508  0.1444  0.2214  0.5158
12748SOL    HW140238   3.873   1.863   2.492  1.9078  0.3963 -1.4661
12748SOL    HW240239   3.819   1.972   2.582 -2.0430 -2.0601 -0.6274
12749SOL     OW40240   8.793   4.551   4.973  0.1717 -0.0706  0.2233
12749SOL    HW140241   8.879   4.577   5.006  0.5946  0.3269 -1.1477
12749SOL    HW240242   8.760   4.490   5.039  1.2728  0.1726  1.0304
12750SOL     OW40243   5.476   5.803   8.378  0.0844 -0.0760 -0.6449
12750SOL    HW140244   5.412   5.793   8.449  0.0193  2.7697 -0.1977
12750SOL    HW240245   5.434   5.763   8.302 -0.4339 -1.9352  0.5474
12751SOL     OW40246   6.737   7.763   0.030 -0.6303 -0.0724  0.2533
12751SOL    HW140247   6.698   7.849   0.017 -1.1547 -0.2441  0.6593
12751SOL    HW240248   6.742   7.754   0.125  1.7941  0.5748  0.2528
12752SOL     OW40249   3.725   5.873   6.960  0.3774  0.2967  0.2805
12752SOL    HW140250   3.777   5.805   6.919  0.6046  1.1870 -0.9448
12752SOL    HW240251   3.784   5.947   6.969  0.3489  0.1284  2.2944
12753SOL     OW40252   4.843   6.259   5.624  0.1824  0.5393  0.1194
12753SOL    HW140253   4.877   6.171   5.641 -1.7459 -0.1214  0.9124
12753SOL    HW240254   4.881   6.284   5.540 -0.9712 -2.0367 -1.2820
12754SOL     OW40255   8.467   7.404   3.593 -0.2241  0.7459 -0.0028
12754SOL    HW140256   8.522   7.482   3.604  2.2653 -0.9380  0.2560
12754SOL    HW240257   8.468   7.387   3.498 -0.1133  0.5777  0.0286
12755SOL     OW40258   0.503   7.889   1.343  0.3112  0.0058  0.0421
12755SOL    HW140259   0.596   7.872   1.356  0.2163 -0.3787  0.2349
12755SOL    HW240260   0.487   7.973   1.385  0.7309  0.4475 -0.6589
12756SOL     OW40261   5.818   4.024   2.950 -0.4310  0.4514 -0.3617
12756SOL    HW140262   5.732   4.067   2.951  0.2384  2.0112 -1.9517
12756SOL    HW240263   5.814   3.966   2.874 -0.0776  0.5880 -0.4875
12757SOL     OW40264   0.875   3.062   6.062  0.0378 -0.2780 -0.3015
12757SOL    HW140265   0.906   3.042   5.974  0.6262 -0.8676  0.0277
12757SOL    HW240266   0.899   3.153   6.076 -0.2019 -0.1335 -0.8057
12758SOL     OW40267   7.182   1.479   1.103  0.4892 -0.0694  0.1690
12758SOL    HW140268   7.255   1.440   1.054  0.2495 -1.6489  0.9859
12758SOL    HW240269   7.104   1.441   1.062  0.2417 -0.3701  0.8986
12759SOL     OW40270   7.098   8.872   7.756  0.2472  0.8281 -0.3174
12759SOL    HW140271   7.080   8.943   7.694 -3.6890 -1.8803 -2.7551
12759SOL    HW240272   7.031   8.882   7.824  0.6855  0.3151  0.2006
12760SOL     OW40273   4.438   3.008   5.465 -0.1564 -0.6277  0.4973
12760SOL    HW140274   4.439   2.999   5.560 -1.8328 -1.3899  0.4646
12760SOL    HW240275   4.346   3.002   5.441  0.2266 -0.2786 -1.1728
12761SOL     OW40276   6.141   7.692   1.660  0.2923 -0.0335 -0.0364
12761SOL    HW140277   6.144   7.597   1.658  0.7586 -0.0577  0.9379
12761SOL    HW240278   6.143   7.719   1.568 -0.1312 -0.9607 -0.3303
12762SOL     OW40279   8.171   2.199   0.197  0.2022  0.7032 -0.1871
12762SOL    HW140280   8.239   2.140   0.228 -1.7375 -1.2247  0.7130
12762SOL    HW240281   8.125   2.227   0.276  1.4699  4.1308 -0.5051
12763SOL     OW40282   7.465   0.621   1.837 -0.3051  0.1354  0.2666
12763SOL    HW140283   7.552   0.587   1.860  0.5512 -0.0753 -2.7533
12763SOL    HW240284   7.460   0.705   1.883  2.1417  0.8026 -0.5070
12764SOL     OW40285   5.403   7.219   4.687 -0.0295  0.5845 -0.4208
12764SOL    HW140286   5.404   7.311   4.663  1.2376  0.9061  0.7068
12764SOL    HW240287   5.494   7.191   4.678  0.2066  0.2788  2.0936
12765SOL     OW40288   2.702   6.029   4.947 -0.2415  0.1486 -0.0983
12765SOL    HW140289   2.665   6.031   5.035  1.4962  2.1865  0.6574
12765SOL    HW240290   2.788   6.068   4.956 -0.3857  1.3468 -2.8806
12766SOL     OW40291   7.896   8.724   0.304  0.5063 -0.0524  0.2997
12766SOL    HW140292   7.941   8.777   0.237 -0.5897  0.0109 -0.4061
12766SOL    HW240293   7.966   8.696   0.363  1.4869 -0.0191 -0.8135
12767SOL     OW40294   6.394   2.060   4.577  0.1837  0.3455  0.0485
12767SOL    HW140295   6.358   1.989   4.630  0.9104  0.4786  0.7288
12767SOL    HW240296   6.372   2.140   4.624  2.3011  0.3720  1.0746
12768SOL     OW40297   3.568   7.608   6.968 -0.1427 -0.1137  0.2986
12768SOL    HW140298   3.568   7.649   6.882  1.2604  0.5388  0.5821
12768SOL    HW240299   3.567   7.681   7.029  1.3452 -0.4945  0.8195
12769SOL     OW40300   2.043   2.017   4.822 -0.0917 -0.0648 -0.0748
12769SOL    HW140301   2.123   1.975   4.855  0.7547  1.3360 -0.2787
12769SOL    HW240302   2.029   1.977   4.736 -0.2919 -1.1531  0.4374
12770SOL     OW40303   3.102   2.556   4.034  0.9477  0.2487 -0.5460
12770SOL    HW140304   3.144   2.471   4.044 -0.3217 -0.1534  2.3600
12770SOL    HW240305   3.169   2.619   4.062  1.3474  0.0833 -1.1115
12771SOL     OW40306   0.846   5.021   0.058 -0.1639 -0.1491  0.4986
12771SOL    HW140307   0.903   4.952   0.093 -0.5090 -0.0562  1.2568
12771SOL    HW240308   0.854   5.012  -0.037  2.6818  1.1326  0.5129
12772SOL     OW40309   2.073   2.110   3.032  0.1939 -1.1286 -0.2283
12772SOL    HW140310   2.076   2.089   2.938 -0.4261  1.6833 -0.9919
12772SOL    HW240311   1.980   2.124   3.050  0.3922 -0.7809  0.5706
12773SOL     OW40312   3.089   6.638   7.614 -0.2849 -0.2479 -0.2168
12773SOL    HW140313   3.039   6.629   7.533  0.6375 -2.8961 -0.6094
12773SOL    HW240314   3.049   6.574   7.674  0.8007 -0.3541  0.4203
12774SOL     OW40315   0.930   2.462   2.282 -0.6261  0.3134  0.1232
12774SOL    HW140316   0.846   2.467   2.236 -1.2688  0.8316  1.2837
12774SOL    HW240317   0.951   2.553   2.303  0.2805  0.1950 -0.2358
12775SOL     OW40318   8.624   4.986   8.073 -0.1871  0.2364  0.0555
12775SOL    HW140319   8.693   4.920   8.079 -0.8071 -0.3200  1.4356
12775SOL    HW240320   8.648   5.039   7.997  0.2294 -1.7001 -1.2226
12776SOL     OW40321   0.931   6.385   7.263 -0.1115  0.0122  0.8504
12776SOL    HW140322   0.948   6.392   7.357  0.6556  1.3102  0.6436
12776SOL    HW240323   0.859   6.322   7.256 -0.3272  0.0568  2.3187
12777SOL     OW40324   7.426   4.300   1.502  0.5100  0.0403  0.1370
12777SOL    HW140325   7.338   4.265   1.488  0.4769  0.5444 -1.0046
12777SOL    HW240326   7.480   4.255   1.438  0.4568  2.0142 -1.4052
12778SOL     OW40327   6.141   6.125   1.222  0.4032 -0.2330 -0.3425
12778SOL    HW140328   6.177   6.040   1.195  1.2205 -0.1619  0.4805
12778SOL    HW240329   6.209   6.188   1.201 -0.8887  0.4998 -2.5808
12779SOL     OW40330   2.479   0.142   8.407  0.2517  0.8799  0.0507
12779SOL    HW140331   2.466   0.198   8.484  1.3840  0.1332  0.8162
12779SOL    HW240332   2.432   0.061   8.427  1.7498  0.1149  0.6412
12780SOL     OW40333   4.094   6.043   5.398  0.2250 -0.0648  0.3287
12780SOL    HW140334   4.094   6.119   5.455 -1.1922  0.1389  0.0790
12780SOL    HW240335   4.157   6.065   5.329 -0.9406  1.3424 -0.3222
12781SOL     OW40336   0.657   6.681   2.860 -0.0364  0.0880 -0.0675
12781SOL    HW140337   0.582   6.665   2.918 -1.6142 -1.9942 -2.4614
12781SOL    HW240338   0.634   6.762   2.814 -0.6950 -0.3457 -0.5290
12782SOL     OW40339   0.727   1.024   1.781 -0.2512  0.3526 -0.6261
12782SOL    HW140340   0.717   1.095   1.718 -0.6902 -0.2921 -1.3029
12782SOL    HW240341   0.692   0.947   1.736  1.5611 -0.6134 -0.4684
12783SOL     OW40342   1.787   8.846   8.536 -0.2199 -0.3640  0.1160
12783SOL    HW140343   1.711   8.903   8.526  1.6552  2.0613 -1.4410
12783SOL    HW240344   1.839   8.887   8.606  0.4009 -1.0564  0.0773
12784SOL     OW40345   3.765   4.796   1.546  0.1594  0.4515 -0.2572
12784SOL    HW140346   3.759   4.710   1.505  0.1929  1.4888 -2.6729
12784SOL    HW240347   3.859   4.810   1.558  0.2724  0.6830 -1.2456
12785SOL     OW40348   7.773   2.719   8.513  1.1569 -0.0672  0.2601
12785SOL    HW140349   7.800   2.763   8.433 -0.6291 -1.9998 -1.5501
12785SOL    HW240350   7.679   2.736   8.519  0.8803 -1.6074  0.7979
12786SOL     OW40351   5.854   3.357   8.858 -0.1939 -0.2233  0.0950
12786SOL    HW140352   5.919   3.402   8.912  0.7965 -0.0269 -1.1848
12786SOL    HW240353   5.906   3.301   8.801 -0.7818  2.0675 -2.9815
12787SOL     OW40354   4.647   0.669   4.122 -0.2978 -0.0231 -0.4014
12787SOL    HW140355   4.651   0.615   4.043 -0.4320  0.2684 -0.6109
12787SOL    HW240356   4.589   0.622   4.181 -0.1556 -0.2702 -0.4580
12788SOL     OW40357   4.835   1.460   7.610  0.7417  0.1546 -0.3020
12788SOL    HW140358   4.833   1.393   7.678 -0.0880  0.5821  0.1030
12788SOL    HW240359   4.789   1.421   7.536 -0.0519  0.3918  0.0542
12789SOL     OW40360   3.403   0.837   6.949  0.2985 -0.1667 -0.4743
12789SOL    HW140361   3.441   0.753   6.975  1.2370  0.0120 -1.2278
12789SOL    HW240362   3.424   0.896   7.022 -1.6268 -0.8930  0.7464
12790SOL     OW40363   5.027   0.818   6.438 -0.4704  0.6476 -0.0414
12790SOL    HW140364   5.083   0.852   6.367  1.5540 -2.3274 -0.0244
12790SOL    HW240365   4.986   0.740   6.401  0.3737 -0.7905  1.9269
12791SOL     OW40366   7.439   8.310   2.636 -0.0815  1.0958  0.6032
12791SOL    HW140367   7.370   8.327   2.699 -0.1785  0.7126  0.6026
12791SOL    HW240368   7.487   8.235   2.671  0.5312  1.5547  0.7611
12792SOL     OW40369   6.978   6.675   7.587  0.4095  0.2671 -0.0131
12792SOL    HW140370   6.935   6.606   7.638 -0.7481  0.9289 -0.0683
12792SOL    HW240371   6.909   6.739   7.570  0.7706  0.1251 -2.3508
12793SOL     OW40372   8.445   1.416   4.294  0.6538  0.0042 -0.3315
12793SOL    HW140373   8.408   1.456   4.215 -1.2588  0.8557  0.9171
12793SOL    HW240374   8.406   1.329   4.297 -0.1203  0.3608  0.2083
12794SOL     OW40375   1.436   1.416   6.673 -0.1512  0.5079 -0.5284
12794SOL    HW140376   1.502   1.484   6.662  0.9661  0.0674  2.5379
12794SOL    HW240377   1.474   1.339   6.630 -0.2042  1.0756 -1.6313
12795SOL     OW40378   6.044   5.448   4.266 -0.0910 -0.4900 -0.2774
12795SOL    HW140379   5.996   5.486   4.339 -0.0367  0.0713 -0.5277
12795SOL    HW240380   6.039   5.514   4.197  1.0379 -0.4178 -0.3101
12796SOL     OW40381   0.012   5.724   8.510 -0.0862  0.5031 -0.3809
12796SOL    HW140382   0.035   5.660   8.443 -1.8160  0.8381 -1.3508
12796SOL    HW240383  -0.054   5.680   8.563  1.6951  0.0025  1.5882
12797SOL     OW40384   8.011   1.623   3.033 -0.1172 -0.1332 -0.5536
12797SOL    HW140385   8.020   1.693   2.968 -1.5150  0.1580 -0.4682
12797SOL    HW240386   8.089   1.631   3.088 -0.0674  1.1113 -0.7813
12798SOL     OW40387   7.629   5.519   3.962 -0.2492  0.4812  0.1842
12798SOL    HW140388   7.701   5.462   3.989  0.2645  1.0174 -0.0273
12798SOL    HW240389   7.557   5.496   4.020 -0.0124 -0.2965  0.1781
12799SOL     OW40390   6.711   7.697   2.536 -0.3337  0.3972 -0.0922
12799SOL    HW140391   6.767   7.659   2.469 -1.0290 -2.6034  0.8476
12799SOL    HW240392   6.771   7.739   2.597  1.2066 -3.2095  1.1849
12800SOL     OW40393   2.105   7.934   6.601 -0.0633  0.0010  0.3623
12800SOL    HW140394   2.157   7.865   6.644 -0.4047 -1.1621 -1.0178
12800SOL    HW240395   2.135   8.015   6.642  1.8936 -0.7598  0.5474
12801SOL     OW40396   2.567   4.211   5.833 -0.0887 -0.0705  0.3684
12801SOL    HW140397   2.662   4.213   5.845 -0.1034 -0.2073  0.5072
12801SOL    HW240398   2.551   4.276   5.765  0.2984 -1.1859 -0.8476
12802SOL     OW40399   4.302   2.089   7.989  0.0426 -0.1630 -0.0807
12802SOL    HW140400   4.210   2.104   8.012 -0.1009  0.2210 -0.8648
12802SOL    HW240401   4.300   2.018   7.925  0.4622 -1.4198  1.2316
12803SOL     OW40402   6.101   1.517   8.113 -0.1631  0.1125 -0.0687
12803SOL    HW140403   6.168   1.585   8.106  0.9002 -0.9500 -0.5395
12803SOL    HW240404   6.064   1.529   8.201 -0.9891  2.1671 -0.6505
12804SOL     OW40405   5.085   2.605   3.546  0.2942 -0.0554  0.0712
12804SOL    HW140406   5.010   2.606   3.606  0.1756  0.1362 -0.0764
12804SOL    HW240407   5.117   2.696   3.547 -0.9815  0.4841 -1.7320
12805SOL     OW40408   5.617   7.810   0.411 -0.3061  0.3076 -0.3078
12805SOL    HW140409   5.651   7.846   0.329  1.4857 -0.0825  0.2290
12805SOL    HW240410   5.653   7.722   0.416 -0.4903  0.2774  0.8435
12806SOL     OW40411   8.390   1.680   3.465 -0.5229  0.1106  0.3146
12806SOL    HW140412   8.485   1.669   3.456 -0.7290 -0.8670 -0.9058
12806SOL    HW240413   8.374   1.669   3.559  0.4312 -0.9862  0.3747
12807SOL     OW40414   2.665   0.458   0.792 -0.1072  0.0570  0.0200
12807SOL    HW140415   2.727   0.531   0.797  1.6287 -1.0494 -2.9701
12807SOL    HW240416   2.719   0.380   0.800 -1.5343 -0.9489  0.1984
12808SOL     OW40417   4.960   6.271   4.072  0.1446  0.0281 -0.4726
12808SOL    HW140418   4.949   6.246   4.164 -1.3172 -0.8275 -0.8397
12808SOL    HW240419   5.054   6.265   4.056  0.2492 -1.4705  0.5251
12809SOL     OW40420   5.323   4.664   1.311 -0.1186  0.2661 -0.1073
12809SOL    HW140421   5.412   4.692   1.335  0.7537 -1.9518 -0.4903
12809SOL    HW240422   5.285   4.633   1.393  0.0140 -0.1009 -0.1786
12810SOL     OW40423   1.170   7.268   3.490  0.3775 -0.0231  0.2249
12810SOL    HW140424   1.128   7.249   3.574 -0.3353 -1.1274 -0.3527
12810SOL    HW240425   1.252   7.218   3.493  0.6928  0.5130  0.5484
12811SOL     OW40426   6.271   1.867   1.352  0.4925  0.5690  0.2501
12811SOL    HW140427   6.334   1.865   1.424  2.8329  0.4308 -1.6732
12811SOL    HW240428   6.288   1.950   1.308 -0.5688  0.4328 -0.4443
12812SOL     OW40429   3.121   0.397   0.846  0.3017 -0.0621 -0.5566
12812SOL    HW140430   3.192   0.461   0.847  0.8690 -0.6737 -0.7491
12812SOL    HW240431   3.130   0.353   0.761  1.1595 -1.7282  0.3524
12813SOL     OW40432   2.724   6.754   7.438  0.2433 -0.4914 -0.5978
12813SOL    HW140433   2.665   6.684   7.468  0.3018  0.1881  1.2219
12813SOL    HW240434   2.809   6.712   7.431  0.4845 -0.4694  1.4231
12814SOL     OW40435   5.228   0.106   0.794  0.2525  0.7358 -0.1372
12814SOL    HW140436   5.321   0.126   0.808  0.8612 -0.4889 -2.0023
12814SOL    HW240437   5.220   0.013   0.817 -0.5629  0.8627  0.1389
12815SOL     OW40438   0.886   4.801   1.732  0.1759  0.5430  0.4083
12815SOL    HW140439   0.923   4.732   1.787 -0.2886 -0.9829 -1.1035
12815SOL    HW240440   0.819   4.756   1.681 -0.6300  2.2940 -0.1181
12816SOL     OW40441   8.485   5.676   3.081 -0.7537 -0.3689 -0.6748
12816SOL    HW140442   8.529   5.677   3.165  0.2699 -1.5211 -1.1595
12816SOL    HW240443   8.420   5.605   3.089  0.4610 -1.6148 -1.3456
12817SOL     OW40444   3.832   0.697   0.652 -0.3445 -0.0413 -0.4324
12817SOL    HW140445   3.787   0.781   0.644 -0.0933 -0.0670 -2.8822
12817SOL    HW240446   3.778   0.636   0.602  0.4699 -0.9344 -0.2558
12818SOL     OW40447   7.176   6.850   3.626  0.4514 -0.3379  0.1143
12818SOL    HW140448   7.213   6.774   3.672  1.0306  0.1565  0.4973
12818SOL    HW240449   7.189   6.923   3.687  0.9181  0.2734 -0.6947
12819SOL     OW40450   5.182   3.087   7.831  0.5344  0.2603  0.3555
12819SOL    HW140451   5.226   3.088   7.747  0.2885 -0.3374  0.2117
12819SOL    HW240452   5.181   3.178   7.859  1.0769  0.3936 -0.0444
12820SOL     OW40453   8.863   8.765   5.299  1.0063 -0.5383 -0.3712
12820SOL    HW140454   8.941   8.820   5.293  1.4587 -0.8462  2.0990
12820SOL    HW240455   8.889   8.690   5.352 -0.0192 -2.4965 -2.4710
12821SOL     OW40456   1.791   3.251   8.874  0.3429  0.4606  0.3495
12821SOL    HW140457   1.735   3.235   8.950  0.5368  1.2776  0.6775
12821SOL    HW240458   1.864   3.192   8.886 -0.1097 -0.1217  0.2810
12822SOL     OW40459   1.462   8.878   7.448 -0.4821 -0.2887 -0.4576
12822SOL    HW140460   1.420   8.964   7.456 -0.2118  0.0096 -1.9093
12822SOL    HW240461   1.508   8.866   7.531 -1.5012  0.4286  0.2310
12823SOL     OW40462   7.591   0.360   3.010 -0.5331 -0.1165 -0.4656
12823SOL    HW140463   7.597   0.421   2.936  0.9047  0.5297  0.1385
12823SOL    HW240464   7.594   0.417   3.087 -0.2261 -0.8862  0.0991
12824SOL     OW40465   3.479   6.290   7.615  0.0352 -0.5242  0.0954
12824SOL    HW140466   3.504   6.231   7.543  2.1751 -0.9533  1.0995
12824SOL    HW240467   3.429   6.359   7.572 -0.0572 -1.5418 -1.5679
12825SOL     OW40468   6.663   4.106   4.244  0.3460  0.0175  0.4856
12825SOL    HW140469   6.585   4.062   4.214  0.2799  0.6047 -0.2212
12825SOL    HW240470   6.633   4.193   4.273  0.7703  0.3524 -0.0567
12826SOL     OW40471   7.400   0.032   8.473  0.1642  0.3828 -0.1959
12826SOL    HW140472   7.394  -0.063   8.459  0.9193  0.5839 -2.2157
12826SOL    HW240473   7.330   0.068   8.419  1.3343  1.0710 -1.3060
12827SOL     OW40474   0.079   1.557   0.082  0.6138 -0.5358 -0.2641
12827SOL    HW140475   0.015   1.616   0.119  0.4095 -1.3772  0.7647
12827SOL    HW240476   0.164   1.598   0.100  0.4183  1.6156 -3.3982
12828SOL     OW40477   4.606   5.812   6.771 -0.0393 -0.1471 -0.0233
12828SOL    HW140478   4.554   5.868   6.713 -1.9754 -2.6604 -0.9390
12828SOL    HW240479   4.683   5.789   6.720 -0.7830 -0.7792 -0.9014
12829SOL     OW40480   8.698   0.166   2.191 -0.4767 -0.2252 -0.2690
12829SOL    HW140481   8.701   0.084   2.241 -1.9142  0.3266  0.7724
12829SOL    HW240482   8.612   0.164   2.148 -1.0616  1.2740  0.7568
12830SOL     OW40483   1.274   8.661   7.712 -0.5359  0.2208  0.0895
12830SOL    HW140484   1.329   8.723   7.761  0.5293 -0.7302  0.1347
12830SOL    HW240485   1.267   8.585   7.769 -0.6507 -0.2556 -0.5487
12831SOL     OW40486   7.845   5.285   2.910  0.6005  0.5480 -0.2410
12831SOL    HW140487   7.797   5.263   2.990  1.6225 -2.3381 -0.2958
12831SOL    HW240488   7.812   5.371   2.885 -2.6533 -0.1503  1.1251
12832SOL     OW40489   2.752   1.573   4.461 -0.3994 -0.1827  0.6013
12832SOL    HW140490   2.670   1.540   4.423 -0.4272  0.8279 -0.2492
12832SOL    HW240491   2.806   1.496   4.472 -1.3645 -0.8366  0.9293
12833SOL     OW40492   2.041   1.857   6.580 -0.4011  0.3128 -1.0269
12833SOL    HW140493   2.115   1.842   6.639 -2.1539 -1.2285  0.9444
12833SOL    HW240494   2.065   1.934   6.530  2.7109 -0.3973 -0.8065
12834SOL     OW40495   3.516   0.433   7.773  0.1730  0.2833  0.6625
12834SOL    HW140496   3.508   0.398   7.684 -1.3119  1.1296  0.4185
12834SOL    HW240497   3.593   0.490   7.770  0.1371  0.3061 -0.0872
12835SOL     OW40498   5.543   1.394   8.678 -0.1659  0.0667  0.0878
12835SOL    HW140499   5.490   1.339   8.620  0.3946  0.5462 -0.9121
12835SOL    HW240500   5.486   1.414   8.752 -1.3809  0.5629 -0.9403
12836SOL     OW40501   4.545   4.261   5.733  0.2032 -0.2894 -0.0295
12836SOL    HW140502   4.586   4.246   5.818 -0.8851  0.5165  0.6501
12836SOL    HW240503   4.503   4.347   5.741 -0.3680 -0.4433 -1.2032
12837SOL     OW40504   1.099   1.125   8.277 -0.6858 -0.4235 -0.0351
12837SOL    HW140505   1.108   1.131   8.372 -0.6796 -0.8316 -0.0098
12837SOL    HW240506   1.147   1.201   8.244 -1.2175  0.0693  0.3103
12838SOL     OW40507   1.007   0.383   3.929  1.0139  0.5350  0.9861
12838SOL    HW140508   0.924   0.388   3.881  0.5984 -1.7796  1.3283
12838SOL    HW240509   1.069   0.432   3.876  0.0077  0.0750 -0.6821
12839SOL     OW40510   6.484   3.776   8.747  0.0289  0.2154  1.0568
12839SOL    HW140511   6.438   3.819   8.819  0.8005 -0.9255  2.2792
12839SOL    HW240512   6.549   3.841   8.718 -0.0131  0.5433  1.6759
12840SOL     OW40513   5.965   7.551   7.226 -0.0095 -0.0504 -0.1970
12840SOL    HW140514   6.042   7.548   7.169  0.1923 -0.4339  0.0934
12840SOL    HW240515   5.967   7.469   7.275 -1.5867 -0.8828 -1.4453
12841SOL     OW40516   6.108   2.699   1.017  0.6013 -0.7494 -0.1219
12841SOL    HW140517   6.104   2.794   1.010  1.3228 -0.7682 -1.0873
12841SOL    HW240518   6.030   2.674   1.066 -0.3251  0.2220 -1.0808
12842SOL     OW40519   0.041   4.550   1.657  0.1061  0.3893 -0.6203
12842SOL    HW140520   0.082   4.464   1.664  0.2161  0.3836 -1.2924
12842SOL    HW240521  -0.037   4.535   1.604 -0.5488  0.4790  0.2892
12843SOL     OW40522   3.904   5.408   1.098 -0.3526 -0.0218  0.1433
12843SOL    HW140523   3.823   5.374   1.061  0.9351 -2.0621 -0.9962
12843SOL    HW240524   3.945   5.333   1.141  0.6900  1.0815  1.1803
12844SOL     OW40525   8.665   1.915   0.907  0.1948 -0.4710 -0.4110
12844SOL    HW140526   8.626   1.995   0.872  0.7389  0.0314  0.0943
12844SOL    HW240527   8.630   1.845   0.853 -1.0063  0.0107 -0.2720
12845SOL     OW40528   7.995   1.076   0.478  0.2412 -0.4080  0.4392
12845SOL    HW140529   8.019   1.055   0.387 -0.2293  0.0653  0.2016
12845SOL    HW240530   7.944   1.001   0.507 -1.9410  0.5907 -0.5967
12846SOL     OW40531   2.238   0.875   6.354 -0.4271 -0.0912 -0.1623
12846SOL    HW140532   2.275   0.803   6.405 -1.4736  1.7265  3.5699
12846SOL    HW240533   2.314   0.920   6.317  0.6163 -0.3741  1.5298
12847SOL     OW40534   7.043   7.125   4.792 -0.4572  0.0595 -0.0663
12847SOL    HW140535   7.093   7.177   4.854 -0.9271  0.7435 -0.2526
12847SOL    HW240536   6.959   7.111   4.835  0.3377 -2.3815  0.9181
12848SOL     OW40537   7.228   1.203   2.780  0.9892  0.3957 -0.0573
12848SOL    HW140538   7.139   1.238   2.787 -0.0603 -2.2982  1.4019
12848SOL    HW240539   7.283   1.280   2.764 -1.6478  2.0561 -1.7242
12849SOL     OW40540   8.612   1.098   8.542  0.0859 -0.2139 -0.1800
12849SOL    HW140541   8.604   1.152   8.464  2.2006 -1.8385 -1.6615
12849SOL    HW240542   8.551   1.025   8.528 -1.4706  0.7971  0.9931
12850SOL     OW40543   7.117   2.955   1.862 -0.1792  0.1376 -0.3078
12850SOL    HW140544   7.098   3.044   1.892 -0.2262  0.4682 -1.3167
12850SOL    HW240545   7.095   2.955   1.769 -2.5110 -1.5837  0.1357
12851SOL     OW40546   8.470   3.235   4.174 -0.1911  0.0714 -0.2399
12851SOL    HW140547   8.417   3.158   4.156 -1.4475  0.7129  0.5567
12851SOL    HW240548   8.531   3.207   4.243  0.0281 -0.4645 -0.6425
12852SOL     OW40549   4.063   3.905   2.590 -0.0263 -0.1939 -0.7184
12852SOL    HW140550   4.136   3.860   2.634  1.0065  1.4643 -0.6339
12852SOL    HW240551   4.089   3.997   2.590 -2.3193  0.5083 -0.3590
12853SOL     OW40552   1.334   7.369   2.022  0.0089  0.5252 -0.1899
12853SOL    HW140553   1.415   7.352   2.070 -1.5353  0.3185  2.5348
12853SOL    HW240554   1.300   7.281   2.003  0.3189  0.6146 -1.2534
12854SOL     OW40555   8.368   2.343   4.327 -0.1499  0.4801 -0.2550
12854SOL    HW140556   8.313   2.385   4.260  1.3095  0.8109 -1.3055
12854SOL    HW240557   8.326   2.259   4.343  0.2078 -0.2166 -2.6490
12855SOL     OW40558   4.348   4.975   0.382  0.2832 -0.1482  0.0266
12855SOL    HW140559   4.312   4.964   0.470  0.6033 -0.3456  0.1359
12855SOL    HW240560   4.415   5.043   0.392  0.5998 -0.4562  0.0192
12856SOL     OW40561   2.122   2.019   6.921 -0.1571  0.2552  0.3804
12856SOL    HW140562   2.101   2.066   7.002  1.9185 -0.5475  1.4692
12856SOL    HW240563   2.205   2.055   6.893 -0.2591 -0.3273 -0.7295
12857SOL     OW40564   1.576   2.454   7.289 -0.1480 -0.2680  0.1321
12857SOL    HW140565   1.561   2.383   7.227 -0.4562 -0.1499  0.0741
12857SOL    HW240566   1.495   2.504   7.290  0.9662  1.7087 -1.8752
12858SOL     OW40567   0.038   1.930   2.990  0.0864 -0.4477  0.0272
12858SOL    HW140568  -0.055   1.951   2.983  0.3349  0.0527 -2.6384
12858SOL    HW240569   0.055   1.870   2.918  1.9587 -0.0148  0.0442
12859SOL     OW40570   5.732   2.982   7.881  0.2123  0.2951 -0.3658
12859SOL    HW140571   5.659   3.031   7.919 -0.8513 -0.2616 -1.6074
12859SOL    HW240572   5.724   2.997   7.787  0.8118 -0.9714 -0.6344
12860SOL     OW40573   6.101   4.260   0.859  0.1548  0.2173 -0.5371
12860SOL    HW140574   6.093   4.172   0.822  3.6051  0.0980 -1.4137
12860SOL    HW240575   6.171   4.253   0.924 -0.7148  1.9909  0.6850
12861SOL     OW40576   7.151   3.664   7.828 -0.3175 -0.3846  0.5560
12861SOL    HW140577   7.239   3.633   7.850 -0.5080 -0.0095  1.9193
12861SOL    HW240578   7.161   3.703   7.741  0.4097 -2.1729 -0.2224
12862SOL     OW40579   2.886   2.599   3.898 -0.0069 -0.2395  0.4212
12862SOL    HW140580   2.970   2.582   3.940 -0.3411 -1.8827  0.4763
12862SOL    HW240581   2.894   2.688   3.864  1.8494 -0.4500  0.2191
12863SOL     OW40582   3.571   0.139   5.631 -0.4326  0.2167  0.4236
12863SOL    HW140583   3.628   0.213   5.607  0.2801 -0.5913 -0.4702
12863SOL    HW240584   3.632   0.067   5.648 -1.1009 -0.0856  1.6421
12864SOL     OW40585   4.553   4.534   5.884  0.3691  0.6306  0.0104
12864SOL    HW140586   4.591   4.553   5.970  0.2962 -1.6209  0.6219
12864SOL    HW240587   4.628   4.513   5.828  0.2897 -0.4498  0.2779
12865SOL     OW40588   3.027   7.161   5.662 -0.2153 -0.0964  0.2968
12865SOL    HW140589   3.002   7.250   5.685  1.4413  0.5303 -0.1915
12865SOL    HW240590   2.955   7.130   5.607 -0.1939  1.4368 -0.6582
12866SOL     OW40591   1.001   3.086   4.366  0.8565 -0.4679  0.7012
12866SOL    HW140592   0.964   3.174   4.369  1.7719  0.0068 -0.7745
12866SOL    HW240593   0.965   3.042   4.443 -0.5302  0.8242  0.8340
12867SOL     OW40594   3.809   5.110   3.149 -0.1868 -0.3901  0.3970
12867SOL    HW140595   3.772   5.032   3.190 -1.7660  1.3461  2.4631
12867SOL    HW240596   3.864   5.149   3.217 -2.8280  2.5362  1.0373
12868SOL     OW40597   0.258   0.079   3.757  0.0825 -0.0194  0.1576
12868SOL    HW140598   0.241   0.167   3.792 -0.1167  0.4953 -1.1723
12868SOL    HW240599   0.338   0.050   3.802  0.1265  0.8203  0.6419
12869SOL     OW40600   3.171   6.924   3.721  0.2795  0.0252 -0.1544
12869SOL    HW140601   3.232   6.935   3.794 -0.7833  2.5060  0.4580
12869SOL    HW240602   3.131   7.010   3.710 -1.1516 -0.8300 -2.3056
12870SOL     OW40603   0.573   4.100   4.866  0.0095  0.8433  0.2619
12870SOL    HW140604   0.498   4.043   4.885  0.1361  1.2476  2.2026
12870SOL    HW240605   0.627   4.095   4.945  0.8359  2.3866 -0.1692
12871SOL     OW40606   2.132   2.989   3.884 -0.1445 -0.7198  0.5952
12871SOL    HW140607   2.113   3.081   3.900 -0.5560 -0.5839 -0.6029
12871SOL    HW240608   2.064   2.941   3.933  0.1191 -0.4095  1.2842
12872SOL     OW40609   8.650   6.908   6.087  0.1851  0.9725  0.0062
12872SOL    HW140610   8.682   6.951   6.008  0.4134 -1.1368 -1.1014
12872SOL    HW240611   8.555   6.919   6.083  0.2544  1.5498 -0.1395
12873SOL     OW40612   8.632   8.305   7.271  0.2299 -0.7107  0.2401
12873SOL    HW140613   8.677   8.251   7.206  0.3705  0.4555 -0.6639
12873SOL    HW240614   8.558   8.251   7.300  0.9792 -1.8022  0.1637
12874SOL     OW40615   2.643   2.601   2.607 -0.0793  0.1350  0.7056
12874SOL    HW140616   2.737   2.611   2.621  0.2111  0.6347 -1.2748
12874SOL    HW240617   2.603   2.669   2.662  0.9667  2.2469 -0.9853
12875SOL     OW40618   3.034   6.492   8.418  0.2268  0.0900  0.2179
12875SOL    HW140619   3.075   6.562   8.469 -0.8479  0.2149  0.9392
12875SOL    HW240620   3.012   6.533   8.334  0.4974  0.3408  0.2668
12876SOL     OW40621   2.094   1.041   3.455 -0.0185  0.2511  0.3348
12876SOL    HW140622   2.021   1.091   3.416 -0.6196 -0.4552  0.5415
12876SOL    HW240623   2.150   1.019   3.380  0.1364  1.0276  0.2090
12877SOL     OW40624   5.114   4.117   5.742  0.2280 -0.0633  0.2387
12877SOL    HW140625   5.208   4.138   5.740 -0.0671  1.3955  0.2536
12877SOL    HW240626   5.099   4.086   5.831  0.8812 -1.2974 -0.0684
12878SOL     OW40627   7.585   1.412   4.444  0.0265 -0.0105 -0.0666
12878SOL    HW140628   7.506   1.462   4.424  0.8368  1.8745  1.1497
12878SOL    HW240629   7.560   1.356   4.518  0.1996  1.7913  1.4241
12879SOL     OW40630   2.329   8.552   5.958  0.4145 -0.9296 -0.5757
12879SOL    HW140631   2.299   8.637   5.927 -1.3566 -1.0808  0.5727
12879SOL    HW240632   2.261   8.490   5.931  2.0390 -2.1567 -2.0628
12880SOL     OW40633   7.336   4.730   6.233  0.3405  0.2722 -0.5447
12880SOL    HW140634   7.372   4.763   6.150  0.2817  1.9540  0.0641
12880SOL    HW240635   7.284   4.802   6.267  0.6307 -0.2765  1.1353
12881SOL     OW40636   0.306   3.699   8.320  0.0293  0.0538 -0.2816
12881SOL    HW140637   0.383   3.716   8.374 -0.2199 -1.7093  0.6918
12881SOL    HW240638   0.321   3.612   8.282 -1.4204 -0.2974 -0.1256
12882SOL     OW40639   8.842   4.423   0.927  0.0324  0.4728 -0.3204
12882SOL    HW140640   8.829   4.464   0.841  0.1043  0.2170 -0.4532
12882SOL    HW240641   8.867   4.333   0.907  0.2096  0.4576 -0.0316
12883SOL     OW40642   4.269   5.000   0.659 -0.4034  0.3558  0.1863
12883SOL    HW140643   4.309   5.065   0.717  1.4071 -0.4520 -0.0755
12883SOL    HW240644   4.272   4.918   0.709  0.9406 -0.2957 -0.8813
12884SOL     OW40645   1.587   5.962   0.697  0.3889  0.6087  0.5716
12884SOL    HW140646   1.636   6.024   0.751 -0.4810  0.5858  1.4084
12884SOL    HW240647   1.495   5.983   0.713  0.0948  0.9687 -1.3491
12885SOL     OW40648   3.143   3.148   4.750 -0.3963 -0.1888 -0.4294
12885SOL    HW140649   3.144   3.063   4.706 -0.3757 -0.1504 -0.5037
12885SOL    HW240650   3.211   3.142   4.816 -1.6301 -0.8986  0.8403
12886SOL     OW40651   6.265   5.461   2.655  0.2104  0.4479 -0.2222
12886SOL    HW140652   6.320   5.535   2.682 -0.0201  0.4181  0.3320
12886SOL    HW240653   6.179   5.480   2.691  0.7617 -1.3789  2.3128
12887SOL     OW40654   5.014   5.473   3.369  0.3401  0.2766 -0.1275
12887SOL    HW140655   4.926   5.510   3.359  0.3773  0.2365 -0.6626
12887SOL    HW240656   5.001   5.378   3.358  0.4495  0.2726 -0.2219
12888SOL     OW40657   0.744   6.635   7.456  0.2264 -0.1937 -0.0438
12888SOL    HW140658   0.797   6.574   7.405  1.4108  1.1754 -0.5140
12888SOL    HW240659   0.778   6.626   7.545  0.2523 -0.3742 -0.0702
12889SOL     OW40660   4.926   3.077   6.214  0.0675 -0.1003 -0.8513
12889SOL    HW140661   4.891   3.143   6.154 -0.7048 -0.6803 -1.0544
12889SOL    HW240662   4.898   2.993   6.176 -1.4061 -0.4505  0.8894
12890SOL     OW40663   6.323   4.836   8.438 -0.4730  0.3155 -0.6112
12890SOL    HW140664   6.240   4.835   8.391  0.6300  0.3042 -2.6633
12890SOL    HW240665   6.383   4.786   8.383  1.2000  1.2999  0.2190
12891SOL     OW40666   1.027   8.499   4.240 -0.4159  0.1421  0.1085
12891SOL    HW140667   1.000   8.573   4.295 -1.4057 -0.8600  1.0177
12891SOL    HW240668   1.122   8.508   4.234 -0.6032  2.0744 -0.6777
12892SOL     OW40669   4.809   5.432   7.541  0.0508  0.4337  0.1799
12892SOL    HW140670   4.871   5.493   7.580  0.9274 -0.3620  0.0572
12892SOL    HW240671   4.861   5.355   7.519 -0.9692 -0.2368  0.0311
12893SOL     OW40672   3.317   3.196   7.885  0.1755  0.3165 -0.0860
12893SOL    HW140673   3.245   3.140   7.912  0.1617  0.6116  0.5108
12893SOL    HW240674   3.396   3.150   7.912  0.2756 -0.4525 -1.5685
12894SOL     OW40675   0.634   6.119   7.567 -0.4914  0.1147  0.3100
12894SOL    HW140676   0.668   6.183   7.630 -1.6468  0.9480  0.1287
12894SOL    HW240677   0.690   6.042   7.578  1.9120  1.6245 -0.4659
12895SOL     OW40678   6.258   1.058   8.113 -0.4050  0.7942  0.0156
12895SOL    HW140679   6.208   0.976   8.111 -0.8767  1.0775 -0.0349
12895SOL    HW240680   6.204   1.118   8.164 -0.3707  1.2719 -0.5059
12896SOL     OW40681   6.720   7.351   0.114 -0.1981 -0.6504  0.1691
12896SOL    HW140682   6.795   7.292   0.112  2.0209  1.9573 -0.0796
12896SOL    HW240683   6.697   7.358   0.206  1.5352  0.3582  0.5741
12897SOL     OW40684   1.562   7.039   6.143  0.1431 -0.0355  0.6430
12897SOL    HW140685   1.625   7.109   6.124 -0.1170 -0.2394 -1.1682
12897SOL    HW240686   1.547   6.997   6.058 -1.3487 -0.9025  1.2987
12898SOL     OW40687   7.119   1.058   6.814 -0.2339  1.0703  0.0821
12898SOL    HW140688   7.052   1.031   6.751  1.1439  1.4438 -1.5938
12898SOL    HW240689   7.201   1.022   6.780  0.5152  1.0486  1.8192
12899SOL     OW40690   2.968   7.110   7.316 -0.0268  0.4468 -0.7163
12899SOL    HW140691   2.883   7.136   7.352 -1.2117 -0.4780 -2.6471
12899SOL    HW240692   2.970   7.149   7.228  1.3152  0.0004 -0.9101
12900SOL     OW40693   4.347   5.094   1.318 -0.0286  0.8326 -0.2950
12900SOL    HW140694   4.429   5.142   1.316  0.8914 -0.5782  1.0025
12900SOL    HW240695   4.335   5.070   1.410 -1.3560  0.1308 -0.6162
12901SOL     OW40696   2.076   8.031   6.146  0.4240 -1.1487  0.1277
12901SOL    HW140697   2.028   7.951   6.169 -0.0232 -1.0854 -0.5599
12901SOL    HW240698   2.122   8.010   6.066 -0.0400 -0.5897 -0.2987
12902SOL     OW40699   4.579   4.267   8.145 -0.1184 -0.2404 -0.1306
12902SOL    HW140700   4.665   4.305   8.163 -0.1328  0.0171 -0.5902
12902SOL    HW240701   4.572   4.193   8.205  1.6046 -2.0313 -1.9805
12903SOL     OW40702   5.150   6.018   7.562  0.0768  0.0863  0.1309
12903SOL    HW140703   5.150   6.101   7.514 -2.4286  0.8648  1.3210
12903SOL    HW240704   5.092   5.961   7.512  0.7931 -0.5426  0.0020
12904SOL     OW40705   8.810   0.608   3.174  0.5226 -0.3199  0.0846
12904SOL    HW140706   8.871   0.604   3.248  0.8489  0.6097 -0.1212
12904SOL    HW240707   8.833   0.689   3.128 -1.9111  0.9396  0.9006
12905SOL     OW40708   7.774   1.793   2.563 -0.3738  0.1181 -0.9366
12905SOL    HW140709   7.722   1.827   2.491 -2.9535 -0.3701  0.5610
12905SOL    HW240710   7.715   1.733   2.609  1.7765 -1.0647  0.4909
12906SOL     OW40711   1.399   3.122   7.274 -0.1798 -0.1443 -1.0588
12906SOL    HW140712   1.381   3.054   7.210 -2.0690  1.7020 -2.6552
12906SOL    HW240713   1.424   3.198   7.221 -0.2507  0.9922  0.4747
12907SOL     OW40714   3.078   4.968   8.355  0.6729  0.0551 -0.0877
12907SOL    HW140715   3.029   4.905   8.407  2.4493 -1.1460  0.2341
12907SOL    HW240716   3.039   4.964   8.268  0.4055 -1.0972  0.0731
12908SOL     OW40717   3.797   4.487   1.813 -0.0874 -0.4208 -0.0767
12908SOL    HW140718   3.776   4.581   1.818 -2.4748 -0.6745 -2.6905
12908SOL    HW240719   3.878   4.484   1.763 -0.1280  0.2523 -0.2020
12909SOL     OW40720   6.644   3.327   3.753  0.2464  0.2627 -0.3354
12909SOL    HW140721   6.679   3.307   3.839  0.9749 -0.0352 -0.6906
12909SOL    HW240722   6.564   3.376   3.770 -0.6408 -1.3910  0.5608
12910SOL     OW40723   6.841   1.398   3.533 -0.2579  0.0409 -0.1314
12910SOL    HW140724   6.786   1.320   3.547  1.5154 -1.2110  0.2217
12910SOL    HW240725   6.778   1.468   3.517 -2.2032 -0.4784  3.8523
12911SOL     OW40726   6.891   6.050   6.293 -0.3340  0.2157  0.8086
12911SOL    HW140727   6.915   6.082   6.380 -1.6338 -0.1183  1.3123
12911SOL    HW240728   6.951   5.977   6.277 -0.7133 -0.3467  1.8558
12912SOL     OW40729   6.428   0.885   2.527  0.7862  0.2346 -0.1101
12912SOL    HW140730   6.435   0.919   2.616  0.1155  0.8592 -0.2896
12912SOL    HW240731   6.508   0.834   2.514  1.0830  0.4891  0.6989
12913SOL     OW40732   0.180   2.778   2.931 -0.0479  0.1722 -0.0683
12913SOL    HW140733   0.241   2.851   2.931 -1.6615  1.5722 -0.6800
12913SOL    HW240734   0.115   2.800   2.998 -0.6523 -0.6173 -0.3792
12914SOL     OW40735   6.893   1.794   4.882  0.3621 -0.1954 -0.0494
12914SOL    HW140736   6.917   1.703   4.864 -1.7730 -0.4534 -2.1743
12914SOL    HW240737   6.837   1.818   4.808 -2.1025  1.6866  2.2704
12915SOL     OW40738   8.886   5.319   6.422 -0.0597  0.7165  0.4835
12915SOL    HW140739   8.825   5.371   6.370 -0.8219 -0.9868 -0.3984
12915SOL    HW240740   8.956   5.296   6.361 -0.4831 -0.5092  0.4386
12916SOL     OW40741   4.658   1.762   3.009 -0.5501 -0.3879 -0.3794
12916SOL    HW140742   4.646   1.672   2.980  3.4189 -0.6151 -1.9109
12916SOL    HW240743   4.574   1.805   2.989 -1.9694 -3.3027 -1.1847
12917SOL     OW40744   5.305   7.868   4.026  0.0734  0.1932 -0.0299
12917SOL    HW140745   5.333   7.777   4.034  0.0311 -0.0054 -1.7746
12917SOL    HW240746   5.210   7.863   4.012 -0.0373  0.5496  0.5797
12918SOL     OW40747   4.077   6.130   4.381  0.3255  0.1115  0.6122
12918SOL    HW140748   4.066   6.136   4.476 -0.7344  0.2812  0.4898
12918SOL    HW240749   4.067   6.220   4.350  0.7649  0.0735  0.3406
12919SOL     OW40750   7.754   3.838   7.606 -0.2541  0.1365  0.4387
12919SOL    HW140751   7.834   3.886   7.627 -1.4112  1.6190  1.6919
12919SOL    HW240752   7.720   3.808   7.690 -2.1402  1.4484  0.2191
12920SOL     OW40753   7.107   0.476   0.982 -0.0280  0.3633  0.2137
12920SOL    HW140754   7.056   0.553   0.957 -0.0636  0.0431 -0.7485
12920SOL    HW240755   7.170   0.509   1.046 -0.2043  1.1499 -0.0026
12921SOL     OW40756   8.194   2.992   6.359 -0.0649 -0.2492 -0.1496
12921SOL    HW140757   8.159   2.906   6.383 -0.8700 -0.0059 -0.4182
12921SOL    HW240758   8.135   3.024   6.291  0.7388  0.1442 -0.6812
12922SOL     OW40759   8.512   8.827   2.069 -0.3508 -0.3279 -0.2828
12922SOL    HW140760   8.449   8.755   2.067  1.9378 -2.4604 -1.9377
12922SOL    HW240761   8.564   8.811   2.148 -1.0260  0.7045  0.4008
12923SOL     OW40762   4.796   4.745   0.159 -0.2807  0.1102  0.3883
12923SOL    HW140763   4.864   4.741   0.092  0.6113 -0.2941  1.3092
12923SOL    HW240764   4.830   4.694   0.232 -1.3649  0.3049  1.0547
12924SOL     OW40765   8.737   0.248   1.887 -0.2794 -0.7364 -0.1624
12924SOL    HW140766   8.763   0.335   1.857 -0.0866 -0.8378 -0.2902
12924SOL    HW240767   8.818   0.209   1.922 -0.1442 -1.2335 -0.9913
12925SOL     OW40768   6.242   2.301   6.639  0.9020 -0.3663  0.3394
12925SOL    HW140769   6.211   2.275   6.726 -0.0725  2.3738  0.8993
12925SOL    HW240770   6.335   2.321   6.652  0.8355 -0.2769  0.6900
12926SOL     OW40771   2.623   8.496   2.867  0.0394  0.4544 -0.0774
12926SOL    HW140772   2.700   8.479   2.921 -0.5193 -0.2592  0.5200
12926SOL    HW240773   2.553   8.511   2.930 -0.4338  0.5117 -0.6121
12927SOL     OW40774   6.993   4.891   5.762  0.1689 -0.1185 -0.4840
12927SOL    HW140775   7.035   4.805   5.761 -0.2055 -0.3102 -0.0484
12927SOL    HW240776   6.925   4.884   5.829  0.3015  0.5985 -0.2616
12928SOL     OW40777   1.555   6.736   4.735  0.0919 -0.1237 -0.3403
12928SOL    HW140778   1.596   6.726   4.649  2.0797 -0.6839  0.6169
12928SOL    HW240779   1.625   6.768   4.792 -0.5846 -1.7867  1.5487
12929SOL     OW40780   8.088   1.037   6.453  0.1452  0.3633  0.1746
12929SOL    HW140781   7.999   1.007   6.436  0.0305  0.3055  0.8513
12929SOL    HW240782   8.080   1.131   6.465  0.4721  0.6680 -1.7099
12930SOL     OW40783   7.543   5.869   8.730 -0.5375 -0.1494  0.2899
12930SOL    HW140784   7.524   5.815   8.653  1.5831 -0.9271  0.2613
12930SOL    HW240785   7.621   5.919   8.707 -1.4216  1.6474  0.9847
12931SOL     OW40786   3.795   6.218   4.275 -0.0800  0.1715 -0.3501
12931SOL    HW140787   3.733   6.201   4.203 -1.0164  1.8056  0.0242
12931SOL    HW240788   3.789   6.139   4.329 -3.4514  0.9933  0.7571
12932SOL     OW40789   4.296   2.742   0.280  0.0598 -0.2686 -0.2577
12932SOL    HW140790   4.341   2.721   0.198 -0.7225 -1.4195 -0.4208
12932SOL    HW240791   4.283   2.837   0.277 -0.2143 -0.3344 -1.6117
12933SOL     OW40792   8.566   1.072   0.857 -0.1220 -0.5044 -0.5043
12933SOL    HW140793   8.533   1.159   0.882 -1.1479 -0.4580 -1.9049
12933SOL    HW240794   8.494   1.013   0.878  0.3042 -0.9258 -0.2220
12934SOL     OW40795   2.739   2.672   2.233  0.0296 -0.0924 -0.0671
12934SOL    HW140796   2.799   2.744   2.253 -0.5720  0.5775 -0.5799
12934SOL    HW240797   2.769   2.599   2.287  0.3822  0.6852  0.8109
12935SOL     OW40798   4.845   7.159   6.345 -0.4111 -0.0584  0.4634
12935SOL    HW140799   4.838   7.237   6.400  0.8172  0.0694  0.4754
12935SOL    HW240800   4.755   7.133   6.328 -0.8288  1.0705  0.8747
12936SOL     OW40801   0.355   4.929   2.816  0.1315  0.7590  0.5513
12936SOL    HW140802   0.299   4.949   2.891  0.2672  3.1981  0.1124
12936SOL    HW240803   0.439   4.904   2.854 -0.1343  0.8682  1.2233
12937SOL     OW40804   0.730   0.292   0.596  0.0328 -0.1055  0.5179
12937SOL    HW140805   0.823   0.315   0.597  0.1160 -0.4007 -0.1355
12937SOL    HW240806   0.693   0.338   0.672  0.3869  1.3382 -0.1594
12938SOL     OW40807   6.440   5.926   8.796 -0.1497 -0.4254 -0.0438
12938SOL    HW140808   6.403   5.840   8.775  0.4630 -1.1762  1.8035
12938SOL    HW240809   6.418   5.940   8.888  1.7750  0.3106  0.3489
12939SOL     OW40810   5.980   8.232   0.210  0.2812  0.3295  0.5592
12939SOL    HW140811   6.029   8.164   0.258  0.7241 -2.3049 -3.1752
12939SOL    HW240812   6.048   8.282   0.164 -0.2219 -0.0647 -0.6639
12940SOL     OW40813   1.404   0.333   3.596  0.0666 -0.2966 -0.3072
12940SOL    HW140814   1.416   0.244   3.563 -0.1406  0.3463 -2.2073
12940SOL    HW240815   1.360   0.379   3.525  0.5923  1.4628  0.4710
12941SOL     OW40816   0.864   7.058   0.436  0.5493  0.1619  0.6888
12941SOL    HW140817   0.850   7.099   0.521 -0.7467 -0.6852  0.9328
12941SOL    HW240818   0.893   6.969   0.457  1.7478  0.4248  0.2050
12942SOL     OW40819   2.501   4.669   1.790  0.0693 -0.0315  0.0901
12942SOL    HW140820   2.458   4.612   1.853 -0.0343 -1.2567 -1.0466
12942SOL    HW240821   2.433   4.731   1.764 -0.5404 -0.8930 -0.4282
12943SOL     OW40822   4.714   2.691   3.427  0.5156  0.1936 -0.0735
12943SOL    HW140823   4.780   2.757   3.405  1.4967 -0.6419  0.2902
12943SOL    HW240824   4.662   2.731   3.497  1.7827  0.1701  0.9023
12944SOL     OW40825   7.444   0.226   1.013 -1.2698  0.0335 -0.1332
12944SOL    HW140826   7.479   0.143   1.045  0.4174  0.6287 -0.3337
12944SOL    HW240827   7.351   0.222   1.033 -1.2832 -2.0102 -0.3751
12945SOL     OW40828   6.623   5.747   6.606 -0.2290  0.5237 -0.3063
12945SOL    HW140829   6.659   5.721   6.521  0.3555 -1.1153  0.3826
12945SOL    HW240830   6.529   5.751   6.593 -0.2166 -0.5400 -0.8645
12946SOL     OW40831   0.425   2.781   3.200 -0.1280  0.3619  0.0148
12946SOL    HW140832   0.459   2.725   3.270 -2.4367 -1.7734 -0.4402
12946SOL    HW240833   0.489   2.774   3.130  1.0773  0.6954  1.0527
12947SOL     OW40834   8.226   8.710   2.314  0.7590 -0.6817 -0.3654
12947SOL    HW140835   8.224   8.757   2.230  1.4178  0.9356  0.4658
12947SOL    HW240836   8.138   8.675   2.324 -0.0531  1.1240 -0.6818
12948SOL     OW40837   4.103   8.536   6.601 -0.1434 -0.4094  0.1234
12948SOL    HW140838   4.055   8.508   6.523  0.9957  0.6041 -0.9834
12948SOL    HW240839   4.185   8.488   6.597 -0.1382 -0.4655  0.7930
12949SOL     OW40840   1.339   2.274   8.249  0.5170 -0.4539 -0.1101
12949SOL    HW140841   1.378   2.298   8.333 -1.1733 -3.7120  1.8375
12949SOL    HW240842   1.289   2.351   8.222  1.9923  1.0556  1.2907
12950SOL     OW40843   2.933   3.605   8.268 -0.4718  0.4215  0.0926
12950SOL    HW140844   2.929   3.585   8.361 -1.3787 -0.4444 -0.1110
12950SOL    HW240845   2.895   3.528   8.225  1.2090  0.1817 -1.0729
12951SOL     OW40846   7.363   4.786   1.879  0.8254  0.4143 -0.1716
12951SOL    HW140847   7.351   4.870   1.922  0.9830  0.5942 -0.4763
12951SOL    HW240848   7.367   4.723   1.951  0.0828  0.5906  0.0257
12952SOL     OW40849   8.245   0.656   0.578  0.5385  0.6604 -0.0579
12952SOL    HW140850   8.259   0.699   0.494  3.5512 -1.7507 -0.9498
12952SOL    HW240851   8.190   0.581   0.558 -1.4265  1.7933  0.7986
12953SOL     OW40852   1.102   3.173   5.365 -0.4742  0.1341 -0.6859
12953SOL    HW140853   1.169   3.111   5.396  1.1096  1.4840 -1.2684
12953SOL    HW240854   1.021   3.121   5.363 -0.0511 -0.8776  2.5635
12954SOL     OW40855   4.340   4.439   6.519  0.2965  0.0611 -0.2353
12954SOL    HW140856   4.402   4.425   6.447  2.2060 -1.1917  1.5526
12954SOL    HW240857   4.394   4.469   6.592 -1.6020  1.4567  0.6910
12955SOL     OW40858   0.120   7.491   5.271  0.3832  0.1794 -0.0324
12955SOL    HW140859   0.046   7.446   5.229  0.6713  0.5675 -0.9938
12955SOL    HW240860   0.187   7.424   5.280  0.5133  0.2102 -0.7070
12956SOL     OW40861   1.296   5.845   0.432  0.3553  0.3726  0.2227
12956SOL    HW140862   1.388   5.832   0.455  0.5972 -0.8914 -1.2972
12956SOL    HW240863   1.297   5.910   0.362  0.2134 -0.3750 -0.4953
12957SOL     OW40864   1.313   8.015   0.102  0.0062  0.1174  0.0236
12957SOL    HW140865   1.326   8.110   0.112 -0.0145  0.1078  0.1385
12957SOL    HW240866   1.394   7.977   0.137 -0.5603  0.0310  1.3089
12958SOL     OW40867   7.393   7.858   8.781  0.2460  0.2025  0.2411
12958SOL    HW140868   7.332   7.931   8.784  0.1397  0.0761  2.1936
12958SOL    HW240869   7.479   7.898   8.768  0.0065  0.5192 -0.4238
12959SOL     OW40870   6.391   3.012   3.977  0.4448 -0.2454 -0.0308
12959SOL    HW140871   6.472   3.062   3.986 -0.1692  0.6695  0.5892
12959SOL    HW240872   6.322   3.071   4.009 -0.3499 -1.3684  0.4045
12960SOL     OW40873   0.908   7.719   5.905  0.1755 -0.6293  0.0603
12960SOL    HW140874   0.891   7.665   5.828  0.5483 -0.9611  0.2139
12960SOL    HW240875   1.002   7.735   5.904  0.4455 -1.9520  1.3121
12961SOL     OW40876   3.911   8.752   5.178  0.4197  0.2545 -0.2664
12961SOL    HW140877   3.932   8.755   5.272 -0.4618 -1.5002  0.0161
12961SOL    HW240878   3.838   8.813   5.169 -0.8236 -1.0486  0.5965
12962SOL     OW40879   0.953   8.232   7.200 -0.0619 -0.0778  0.3615
12962SOL    HW140880   0.960   8.181   7.120 -0.5343 -1.0835  0.9365
12962SOL    HW240881   1.039   8.272   7.211  0.4477 -1.0759  0.1033
12963SOL     OW40882   8.014   2.844   3.222 -0.1035  0.3385 -0.5037
12963SOL    HW140883   8.050   2.830   3.310 -1.2928 -2.4846 -0.3582
12963SOL    HW240884   7.932   2.890   3.237 -1.1745 -1.6646  0.1078
12964SOL     OW40885   7.491   1.389   1.673 -0.3611  0.0706 -0.2169
12964SOL    HW140886   7.524   1.406   1.761 -0.1675 -0.1039 -0.2551
12964SOL    HW240887   7.447   1.471   1.648  1.4643  0.9459 -0.7991
12965SOL     OW40888   8.125   7.502   2.129 -0.1482  0.4842 -0.2290
12965SOL    HW140889   8.050   7.510   2.188 -0.1275 -1.4768  0.1392
12965SOL    HW240890   8.186   7.445   2.175  0.1772 -0.5182 -1.8235
12966SOL     OW40891   1.495   5.668   3.050 -0.4819 -0.4731  0.1985
12966SOL    HW140892   1.468   5.726   3.121  0.8481  0.6467 -0.1771
12966SOL    HW240893   1.522   5.587   3.094 -0.5266 -0.1130  0.8975
12967SOL     OW40894   4.454   2.890   1.734  0.0365  0.2292 -0.7039
12967SOL    HW140895   4.385   2.866   1.795 -0.0107  0.6869 -0.5757
12967SOL    HW240896   4.525   2.925   1.788 -0.1011  0.8639 -0.9205
12968SOL     OW40897   5.227   8.235   0.530  0.1214  0.0181 -0.2103
12968SOL    HW140898   5.279   8.282   0.464 -0.7524  2.1245  0.5346
12968SOL    HW240899   5.145   8.214   0.485 -0.1633  0.7468 -0.0342
12969SOL     OW40900   6.640   3.142   3.301 -0.2601 -0.2158 -0.0376
12969SOL    HW140901   6.603   3.189   3.376  1.2005  2.0993 -0.6531
12969SOL    HW240902   6.705   3.083   3.340  0.8405  1.3112  0.5840
12970SOL     OW40903   6.465   1.278   2.962  0.0684 -0.0394 -0.1450
12970SOL    HW140904   6.515   1.308   3.038 -2.8290  2.4210  1.0029
12970SOL    HW240905   6.388   1.236   3.000 -1.2040  0.7900 -1.7303
12971SOL     OW40906   8.640   8.645   8.500 -0.3746  0.1004 -0.3374
12971SOL    HW140907   8.710   8.626   8.437  0.7913  1.3021  0.5594
12971SOL    HW240908   8.577   8.575   8.486  0.0589  0.0552 -2.5264
12972SOL     OW40909   2.430   0.188   5.227 -0.2295  0.0450  0.1597
12972SOL    HW140910   2.505   0.152   5.180  0.6735  0.7833  0.9861
12972SOL    HW240911   2.432   0.282   5.208 -0.3415  0.2259  0.9900
12973SOL     OW40912   3.383   2.057   7.546 -0.3853  0.0705 -0.4888
12973SOL    HW140913   3.392   2.122   7.477  0.2527 -0.4611 -0.9257
12973SOL    HW240914   3.363   1.975   7.500 -2.1483  0.1147  0.1080
12974SOL     OW40915   0.332   4.775   4.798  0.1581  0.1047 -0.4302
12974SOL    HW140916   0.341   4.715   4.872 -0.2202  1.8587  1.0935
12974SOL    HW240917   0.240   4.765   4.771 -0.1136  0.5583  0.3179
12975SOL     OW40918   1.770   5.519   7.580  0.3756  0.0281 -0.0021
12975SOL    HW140919   1.702   5.470   7.628 -1.2043  1.2021 -0.9506
12975SOL    HW240920   1.773   5.477   7.494  2.0195 -1.0154  0.5271
12976SOL     OW40921   7.491   0.991   7.782 -0.1642  0.1077 -0.3312
12976SOL    HW140922   7.425   1.051   7.817 -0.9614  0.2873 -2.0368
12976SOL    HW240923   7.442   0.914   7.754  0.7062 -0.8653  0.7309
12977SOL     OW40924   3.594   5.059   8.380  0.3412 -0.2434  0.3942
12977SOL    HW140925   3.558   5.122   8.317  0.8712 -0.8983 -0.5862
12977SOL    HW240926   3.519   5.005   8.406 -0.1653  0.9132  1.4187
12978SOL     OW40927   7.861   3.680   5.291  0.2819  0.1057 -0.0389
12978SOL    HW140928   7.793   3.641   5.236 -0.9373  2.2653 -0.1529
12978SOL    HW240929   7.876   3.767   5.254  0.6940  0.9625  1.9672
12979SOL     OW40930   0.267   6.856   4.799  0.0207 -0.0147  0.1253
12979SOL    HW140931   0.298   6.773   4.834  0.6168 -0.1297 -0.6480
12979SOL    HW240932   0.342   6.892   4.752 -0.4560  0.6112 -0.1743
12980SOL     OW40933   5.894   7.865   8.429 -0.4436  0.2990  0.1053
12980SOL    HW140934   5.870   7.810   8.354 -1.9570  0.1069  0.7001
12980SOL    HW240935   5.826   7.849   8.493  0.2207  1.3259  1.1013
12981SOL     OW40936   2.463   3.238   1.187 -0.0367 -0.2581 -0.4892
12981SOL    HW140937   2.406   3.199   1.120 -2.1129  2.4012 -0.4334
12981SOL    HW240938   2.415   3.225   1.269  0.6443 -0.1440 -0.0675
12982SOL     OW40939   1.165   6.645   0.811 -0.2231  0.5012  0.1746
12982SOL    HW140940   1.087   6.627   0.863 -0.2367  2.9079  1.1193
12982SOL    HW240941   1.238   6.619   0.867 -0.3119  0.0856  0.0954
12983SOL     OW40942   5.671   0.940   4.270 -0.0908  0.1717 -0.2328
12983SOL    HW140943   5.747   0.997   4.277 -0.8463  1.1428  0.4212
12983SOL    HW240944   5.686   0.889   4.190  1.1431  0.4673 -0.2078
12984SOL     OW40945   4.899   1.289   5.746 -0.5000  0.5953  0.3435
12984SOL    HW140946   4.947   1.215   5.709 -1.7070  0.2272 -0.5404
12984SOL    HW240947   4.835   1.249   5.805  0.5437  1.1063  1.8843
12985SOL     OW40948   0.850   7.609   4.296 -0.0294  0.3138 -0.0276
12985SOL    HW140949   0.792   7.602   4.220 -0.8470 -1.5455  0.7256
12985SOL    HW240950   0.925   7.660   4.264 -1.3553  1.4537 -1.4441
12986SOL     OW40951   5.583   5.382   3.015 -0.3131  0.2675  0.2589
12986SOL    HW140952   5.587   5.437   3.093  1.8901  0.0769  0.3470
12986SOL    HW240953   5.632   5.303   3.038  2.4509  1.1786 -1.9470
12987SOL     OW40954   2.605   7.131   4.030 -0.1814 -0.0944 -0.0090
12987SOL    HW140955   2.516   7.113   4.060  0.5060 -1.8830  1.1243
12987SOL    HW240956   2.640   7.191   4.096 -0.1639 -0.3419  0.2072
12988SOL     OW40957   3.506   8.280   8.097  0.4089 -0.5527 -0.1648
12988SOL    HW140958   3.489   8.361   8.145  1.4892 -0.5729  0.2756
12988SOL    HW240959   3.548   8.223   8.162  1.2002 -0.8546 -0.9329
12989SOL     OW40960   4.169   8.493   4.644  0.0142 -0.5178 -0.2452
12989SOL    HW140961   4.133   8.428   4.583 -0.5421  0.3415 -0.8479
12989SOL    HW240962   4.137   8.466   4.730  0.3768 -1.4405 -0.3771
12990SOL     OW40963   6.858   5.403   1.806  0.4624  0.0376  0.1154
12990SOL    HW140964   6.856   5.483   1.755  2.3872 -0.7765 -1.4103
12990SOL    HW240965   6.767   5.387   1.830 -0.5666  0.6431 -2.8710
12991SOL     OW40966   6.646   5.440   6.900  0.5848  0.5373  0.0732
12991SOL    HW140967   6.683   5.386   6.830  1.7372  1.0921  0.2397
12991SOL    HW240968   6.638   5.527   6.861  0.6362  0.7065  0.4358
12992SOL     OW40969   1.030   6.071   0.325  0.2162  0.2391  0.0589
12992SOL    HW140970   1.083   6.150   0.335 -0.5708  1.0290 -1.6262
12992SOL    HW240971   0.952   6.088   0.378 -0.3497  1.0026 -0.9828
12993SOL     OW40972   0.428   2.343   2.601 -0.2290  0.0551  0.7239
12993SOL    HW140973   0.400   2.329   2.692 -1.1881 -0.0674  0.4180
12993SOL    HW240974   0.348   2.336   2.550  0.2436  0.5300 -0.1008
12994SOL     OW40975   2.379   3.012   5.302  0.1875  0.5408  0.0427
12994SOL    HW140976   2.417   2.951   5.365 -1.1025 -0.8205 -0.4469
12994SOL    HW240977   2.288   3.023   5.330 -0.6280 -0.6572 -1.9244
12995SOL     OW40978   5.686   0.625   0.312  0.5632  0.1135 -0.0129
12995SOL    HW140979   5.660   0.537   0.285 -0.8670  0.1078  1.2630
12995SOL    HW240980   5.676   0.678   0.233 -1.5551 -0.2904 -0.0762
12996SOL     OW40981   3.482   6.832   7.135  0.0396  0.5101  0.2796
12996SOL    HW140982   3.387   6.843   7.146 -0.0457 -0.9687  1.3575
12996SOL    HW240983   3.501   6.872   7.050 -1.9819 -1.3770 -1.1610
12997SOL     OW40984   0.645   2.206   7.091 -0.5756 -0.2317 -0.4868
12997SOL    HW140985   0.686   2.285   7.128 -0.2117 -0.7566  0.2636
12997SOL    HW240986   0.694   2.190   7.010  0.1231 -0.3398 -0.0534
12998SOL     OW40987   3.102   2.108   6.754  0.1341  0.2040  0.3515
12998SOL    HW140988   3.043   2.164   6.803 -0.8347 -1.0481  0.6760
12998SOL    HW240989   3.080   2.124   6.662 -1.3217 -0.8231  0.4826
12999SOL     OW40990   7.931   1.072   3.593  0.1091  0.3817  0.1192
12999SOL    HW140991   7.887   1.091   3.676 -1.2602 -1.9269  0.0079
12999SOL    HW240992   7.860   1.064   3.529  1.0132  0.4766 -0.9279
13000SOL     OW40993   0.728   1.492   1.032 -0.8432  0.2722 -0.6594
13000SOL    HW140994   0.821   1.490   1.056 -1.0727 -0.0027  0.2213
13000SOL    HW240995   0.727   1.533   0.945  0.0336  0.9112 -0.3803
13001SOL     OW40996   6.276   4.744   6.712  0.1542  0.0734 -0.1155
13001SOL    HW140997   6.197   4.691   6.703 -0.7016  1.3712 -0.6950
13001SOL    HW240998   6.243   4.833   6.724  1.5356  0.5017  0.7390
13002SOL     OW40999   1.292   5.572   0.528 -0.1797 -0.5670  0.2854
13002SOL    HW141000   1.229   5.550   0.459  0.4359  0.0296 -0.4892
13002SOL    HW241001   1.351   5.636   0.487  0.6511 -0.7643  1.1355
13003SOL     OW41002   5.874   6.590   7.119 -0.3812 -0.1679  0.2378
13003SOL    HW141003   5.844   6.508   7.081  2.3352 -1.8358  1.3771
13003SOL    HW241004   5.954   6.612   7.071 -0.1723  0.9213  1.0238
13004SOL     OW41005   8.275   6.117   6.711 -0.3397 -0.6780  0.0039
13004SOL    HW141006   8.182   6.139   6.706 -0.3036 -0.7279 -1.2819
13004SOL    HW241007   8.317   6.173   6.645  0.9631  1.2539  2.3385
13005SOL     OW41008   2.121   4.422   4.164 -0.4095 -0.0595 -0.7527
13005SOL    HW141009   2.071   4.341   4.169 -0.7369  0.0770 -1.6020
13005SOL    HW241010   2.137   4.435   4.070  2.9754 -1.1602 -0.4898
13006SOL     OW41011   6.184   1.026   5.485  0.2890  0.4353 -0.8672
13006SOL    HW141012   6.103   0.986   5.454  0.5730 -0.7778 -0.1070
13006SOL    HW241013   6.156   1.092   5.548 -0.1130 -2.1494  1.8953
13007SOL     OW41014   8.012   3.200   4.783 -0.1186 -0.0968  0.0484
13007SOL    HW141015   7.925   3.207   4.745  0.7521 -1.3024 -2.4356
13007SOL    HW241016   8.009   3.120   4.836 -0.2670 -0.7496 -0.9159
13008SOL     OW41017   1.139   4.354   5.287  0.1408  0.3226  0.0215
13008SOL    HW141018   1.048   4.325   5.285 -0.3207  1.6872 -0.5175
13008SOL    HW241019   1.189   4.276   5.309 -1.1035 -0.5912 -0.2593
13009SOL     OW41020   0.341   6.957   5.679 -0.4534  0.2413  0.1081
13009SOL    HW141021   0.311   6.936   5.591  0.8333 -0.7234 -0.1228
13009SOL    HW241022   0.313   6.883   5.733  0.7368 -0.2731  0.0462
13010SOL     OW41023   2.696   6.329   2.977  0.0252 -0.4692 -0.1354
13010SOL    HW141024   2.767   6.284   2.932  0.0394 -1.1971  0.5885
13010SOL    HW241025   2.643   6.367   2.907  0.4497 -0.9563 -0.7323
13011SOL     OW41026   4.627   4.065   3.644  0.2393  0.0185 -0.2116
13011SOL    HW141027   4.604   4.097   3.732  0.4116  0.8515 -0.4631
13011SOL    HW241028   4.544   4.067   3.596  0.6520  2.4522 -0.9420
13012SOL     OW41029   5.204   8.585   5.039  0.2037 -0.6071  0.1690
13012SOL    HW141030   5.116   8.614   5.062  0.3190  0.5771 -0.7508
13012SOL    HW241031   5.191   8.520   4.970  0.0632  0.7467 -1.1357
13013SOL     OW41032   8.070   2.377   6.121 -0.3067 -0.0014 -0.6025
13013SOL    HW141033   8.145   2.382   6.062 -0.3928  1.3161 -0.6447
13013SOL    HW241034   8.058   2.467   6.152 -1.4966 -0.3019 -0.1213
13014SOL     OW41035   5.609   7.905   6.704  0.2765 -0.3485 -0.0474
13014SOL    HW141036   5.666   7.870   6.636 -0.6228 -0.2608 -0.8663
13014SOL    HW241037   5.609   7.838   6.773 -0.1242 -1.2134 -0.8676
13015SOL     OW41038   7.728   5.976   7.306  0.6880  0.4011 -0.1287
13015SOL    HW141039   7.798   6.032   7.272 -1.8547  3.0022 -1.5747
13015SOL    HW241040   7.691   5.934   7.228  0.3605 -0.6154  0.5564
13016SOL     OW41041   8.826   0.999   5.711 -0.0599 -0.0077  0.7194
13016SOL    HW141042   8.763   0.975   5.643  0.5124 -0.1990  0.2470
13016SOL    HW241043   8.866   0.916   5.737  1.2840  0.3010 -0.2748
13017SOL     OW41044   2.143   8.466   2.916 -0.1872 -0.1254 -0.3932
13017SOL    HW141045   2.234   8.478   2.888 -0.1873 -1.1730 -0.8730
13017SOL    HW241046   2.110   8.395   2.862 -0.4235 -1.6996  1.6950
13018SOL     OW41047   4.821   0.040   3.437 -0.0036  0.1275 -0.1136
13018SOL    HW141048   4.730   0.069   3.442  0.7701  2.6122  1.2953
13018SOL    HW241049   4.869   0.116   3.403  1.6907 -0.7887  0.1015
13019SOL     OW41050   0.486   3.721   8.043 -0.6452 -0.1252  0.4832
13019SOL    HW141051   0.570   3.743   8.004 -0.4398 -0.3076  0.8227
13019SOL    HW241052   0.488   3.759   8.131 -1.5623  1.2915 -0.0607
13020SOL     OW41053   3.137   7.858   7.467  0.2767 -0.2272  0.3618
13020SOL    HW141054   3.227   7.879   7.492  0.1618  0.9412 -0.1312
13020SOL    HW241055   3.144   7.827   7.377  0.3044 -1.2263  0.6969
13021SOL     OW41056   2.494   8.093   6.213 -0.1025  0.1541 -0.1040
13021SOL    HW141057   2.486   8.186   6.196  1.0340 -0.2659 -4.0947
13021SOL    HW241058   2.412   8.068   6.254 -1.0154  2.6474 -0.2612
13022SOL     OW41059   6.066   2.628   2.454 -0.3894 -0.5781  0.1185
13022SOL    HW141060   6.018   2.686   2.395 -0.1164 -1.0448 -0.5766
13022SOL    HW241061   6.043   2.658   2.542  0.0039  0.7948 -0.2257
13023SOL     OW41062   1.408   4.849   5.257 -0.6983 -0.0241  0.9057
13023SOL    HW141063   1.390   4.879   5.168  1.6484  1.4528  0.8308
13023SOL    HW241064   1.455   4.766   5.246 -0.9127 -0.1271  0.7796
13024SOL     OW41065   4.682   4.515   1.594  0.2753  0.5212  0.4820
13024SOL    HW141066   4.631   4.533   1.514 -0.1685  2.1992  1.0969
13024SOL    HW241067   4.754   4.459   1.564 -0.2868  0.5077 -0.9581
13025SOL     OW41068   7.236   0.978   4.750 -0.2419 -0.3346  0.1712
13025SOL    HW141069   7.209   1.018   4.833 -0.3762  0.9292 -0.4617
13025SOL    HW241070   7.331   0.991   4.748 -0.0894 -1.2770  0.5766
13026SOL     OW41071   8.748   1.775   6.580  0.2181 -0.2992  0.1965
13026SOL    HW141072   8.724   1.688   6.612 -0.9137 -0.4487 -0.9829
13026SOL    HW241073   8.671   1.829   6.598  0.8361  0.4387  0.7374
13027SOL     OW41074   4.454   7.484   8.844  0.5769  0.5577  0.5870
13027SOL    HW141075   4.538   7.526   8.862  1.2747 -0.8049  0.6491
13027SOL    HW241076   4.441   7.424   8.917  0.0003  0.0872  0.1103
13028SOL     OW41077   8.141   2.744   2.477 -0.0301 -0.4473 -0.2040
13028SOL    HW141078   8.125   2.819   2.533  0.1223 -0.8257  0.3514
13028SOL    HW241079   8.057   2.699   2.471 -0.9415  1.3523 -2.9605
13029SOL     OW41080   8.314   5.700   0.836  0.1861  0.6118 -0.0906
13029SOL    HW141081   8.382   5.745   0.886 -0.6800  1.1034  0.6896
13029SOL    HW241082   8.258   5.659   0.903  1.0360 -1.8184 -0.7797
13030SOL     OW41083   2.049   8.829   1.469  0.1305 -0.1643  0.0362
13030SOL    HW141084   2.078   8.868   1.386 -0.0396  1.4086  0.6821
13030SOL    HW241085   1.999   8.752   1.443 -0.0621  0.3968 -1.3465
13031SOL     OW41086   7.282   0.274   3.340 -0.1172  0.3606  0.1617
13031SOL    HW141087   7.303   0.345   3.401  1.9578  0.1980 -0.2902
13031SOL    HW241088   7.288   0.195   3.394 -0.8606  0.4003  0.3102
13032SOL     OW41089   3.573   0.555   0.897  0.8237 -0.0264  0.0472
13032SOL    HW141090   3.649   0.573   0.841  0.6798  0.0102 -0.1387
13032SOL    HW241091   3.599   0.585   0.984  0.9120  0.2634 -0.0770
13033SOL     OW41092   8.031   0.130   0.881  0.2034 -0.1800  0.2912
13033SOL    HW141093   8.087   0.069   0.833 -0.8559 -1.3587  0.5132
13033SOL    HW241094   7.943   0.093   0.874 -0.6003  1.6875 -0.1465
13034SOL     OW41095   1.758   8.796   5.795 -0.0496  0.2088 -0.2154
13034SOL    HW141096   1.704   8.866   5.831 -0.2547  0.2041 -0.5035
13034SOL    HW241097   1.698   8.746   5.739  0.1905  0.0497 -0.3335
13035SOL     OW41098   6.688   3.948   0.699 -0.5875 -0.0198 -0.1976
13035SOL    HW141099   6.749   4.012   0.736  1.2449 -1.9597  0.3330
13035SOL    HW241100   6.724   3.926   0.613 -0.7763 -0.8879 -0.0633
13036SOL     OW41101   5.650   5.273   7.723  0.0739  0.4542 -0.2802
13036SOL    HW141102   5.643   5.288   7.629 -1.9692 -0.7527 -0.3826
13036SOL    HW241103   5.704   5.345   7.755  2.0536  0.0802 -2.5468
13037SOL     OW41104   5.688   1.859   3.867  0.1012  0.8744  0.0897
13037SOL    HW141105   5.733   1.786   3.825 -0.3447  0.3074  0.5741
13037SOL    HW241106   5.634   1.897   3.797  0.3314  0.7382 -0.1635
13038SOL     OW41107   4.439   7.311   0.148  0.6614 -0.3600  0.2633
13038SOL    HW141108   4.514   7.284   0.201 -0.8649 -2.3914  1.5188
13038SOL    HW241109   4.362   7.281   0.196 -1.0341  1.8995 -0.8310
13039SOL     OW41110   2.376   5.931   0.309  0.0558  0.3391 -0.2143
13039SOL    HW141111   2.345   5.910   0.397 -3.0486 -0.5075 -1.3870
13039SOL    HW241112   2.434   5.858   0.287 -1.3111 -0.9268  0.1762
13040SOL     OW41113   2.137   7.164   2.173 -0.2212  0.1735  0.1795
13040SOL    HW141114   2.179   7.250   2.169 -0.6467  0.4024  0.5393
13040SOL    HW241115   2.140   7.132   2.083  1.7991 -0.3558  0.3818
13041SOL     OW41116   7.156   3.700   8.639  0.2883  0.0589 -0.4474
13041SOL    HW141117   7.154   3.621   8.693  1.4314  0.5517  0.3534
13041SOL    HW241118   7.170   3.668   8.550  3.2516 -0.5889  0.1467
13042SOL     OW41119   0.276   7.249   5.342 -0.6322 -0.0873  0.4242
13042SOL    HW141120   0.261   7.162   5.305 -1.2050  0.2725 -0.2217
13042SOL    HW241121   0.256   7.239   5.435 -1.2959 -0.5060  0.2435
13043SOL     OW41122   1.754   8.181   2.242 -0.4872 -0.5268 -0.0742
13043SOL    HW141123   1.813   8.138   2.180 -0.8434 -1.1323 -0.0044
13043SOL    HW241124   1.738   8.115   2.310 -1.3068 -0.4056 -0.1370
13044SOL     OW41125   3.751   3.261   3.124 -0.2995  0.3538  0.4307
13044SOL    HW141126   3.680   3.262   3.189 -0.4071 -0.2278  0.3269
13044SOL    HW241127   3.794   3.176   3.137  0.3836  0.7033  0.4985
13045SOL     OW41128   5.813   4.312   4.672 -0.0056  0.1470 -0.2043
13045SOL    HW141129   5.774   4.238   4.626  0.6397 -0.5603  0.3698
13045SOL    HW241130   5.757   4.325   4.748  0.0586  0.0588 -0.1428
13046SOL     OW41131   6.342   2.669   6.636  0.6149  0.3433  0.1097
13046SOL    HW141132   6.358   2.685   6.544 -1.0192  1.0001 -0.1008
13046SOL    HW241133   6.379   2.582   6.652  1.7473  0.6197 -0.9161
13047SOL     OW41134   2.499   2.878   5.505  0.2229  0.3339 -0.3337
13047SOL    HW141135   2.567   2.930   5.549 -0.5408  1.5944 -0.5906
13047SOL    HW241136   2.513   2.789   5.536  2.4909  0.3916 -0.9390
13048SOL     OW41137   7.170   5.829   8.263  0.8784 -0.3337  0.0171
13048SOL    HW141138   7.123   5.909   8.285  1.4819 -0.2123  0.9469
13048SOL    HW241139   7.104   5.772   8.225  0.2924  0.3555 -0.0328
13049SOL     OW41140   6.356   5.763   4.015  0.2691 -0.3931  0.0904
13049SOL    HW141141   6.346   5.782   3.922 -1.5803 -0.2875  0.2805
13049SOL    HW241142   6.437   5.808   4.040  0.0353  0.7731 -1.1426
13050SOL     OW41143   3.585   1.370   1.216 -0.1040 -1.1519 -0.6082
13050SOL    HW141144   3.558   1.323   1.294 -0.9319 -0.5942 -0.5494
13050SOL    HW241145   3.663   1.418   1.243  0.1823 -1.7218 -0.4028
13051SOL     OW41146   2.863   0.968   0.540 -0.2853 -0.2525  0.0821
13051SOL    HW141147   2.907   0.928   0.465 -0.8764 -0.7428 -0.0132
13051SOL    HW241148   2.833   1.053   0.507 -1.6436 -0.9764 -0.6519
13052SOL     OW41149   5.053   4.420   6.194 -0.2716  0.3833  0.2438
13052SOL    HW141150   5.112   4.437   6.120 -1.7456 -2.9296 -1.9612
13052SOL    HW241151   5.110   4.386   6.263  0.7289 -0.4413 -0.9425
13053SOL     OW41152   1.591   4.991   4.542  0.8252  0.0870 -0.0073
13053SOL    HW141153   1.609   5.060   4.479  1.5629  1.0737  1.2635
13053SOL    HW241154   1.673   4.942   4.549  0.8948  0.2750  0.5334
13054SOL     OW41155   1.526   8.360   2.590  0.1736 -0.0278 -0.1645
13054SOL    HW141156   1.512   8.353   2.685 -1.0592 -0.7300 -0.3748
13054SOL    HW241157   1.487   8.280   2.554  0.6165  0.2357 -1.2634
13055SOL     OW41158   7.304   1.032   8.561 -0.2838  0.0120  0.5583
13055SOL    HW141159   7.229   1.010   8.617  0.1930 -0.4943  1.0043
13055SOL    HW241160   7.278   1.001   8.474  0.1418 -1.8876  1.0618
13056SOL     OW41161   7.829   4.388   8.600 -0.3264 -0.0406  1.0252
13056SOL    HW141162   7.784   4.328   8.660 -0.9204 -0.6890 -0.0449
13056SOL    HW241163   7.767   4.460   8.588 -0.7670 -0.5406  0.1916
13057SOL     OW41164   7.886   3.551   2.513 -0.3787  0.0717  0.4278
13057SOL    HW141165   7.852   3.628   2.558 -0.6954 -1.6591  3.4358
13057SOL    HW241166   7.967   3.530   2.561  0.8610 -0.2834 -1.7085
13058SOL     OW41167   8.480   7.424   2.598  0.4765 -0.4299 -0.8846
13058SOL    HW141168   8.486   7.338   2.641 -1.1417 -0.7097 -1.1890
13058SOL    HW241169   8.545   7.420   2.528  2.2289 -0.4454  0.6450
13059SOL     OW41170   8.117   3.724   5.869 -0.3416 -0.4692  0.2994
13059SOL    HW141171   8.135   3.802   5.922 -1.3724  0.7640 -1.0824
13059SOL    HW241172   8.024   3.706   5.886 -1.2389  1.0477 -2.3250
13060SOL     OW41173   0.949   1.497   0.215  0.3531 -0.3509  0.2553
13060SOL    HW141174   0.881   1.504   0.282  0.9807 -3.0161  1.2975
13060SOL    HW241175   0.924   1.420   0.164  1.8380 -0.5445 -0.2187
13061SOL     OW41176   5.083   1.561   1.920 -0.1010  0.3601 -0.1510
13061SOL    HW141177   5.044   1.641   1.955 -2.1280 -0.6826  0.1194
13061SOL    HW241178   5.014   1.521   1.867  0.7247 -1.3940  0.0126
13062SOL     OW41179   0.047   0.900   1.664 -0.5203 -0.0942 -0.5129
13062SOL    HW141180   0.109   0.959   1.621 -1.5589  0.7476 -0.8977
13062SOL    HW241181   0.081   0.891   1.753 -1.3426  2.6635  0.1597
13063SOL     OW41182   0.515   8.138   1.533 -0.5551 -0.2307 -0.0664
13063SOL    HW141183   0.523   8.105   1.623  1.1061 -0.3646 -0.2249
13063SOL    HW241184   0.583   8.206   1.527 -2.3164  1.5740 -0.4873
13064SOL     OW41185   2.608   4.342   4.582  0.5481 -0.4206 -0.0799
13064SOL    HW141186   2.632   4.348   4.675  0.4172 -2.2528  0.1147
13064SOL    HW241187   2.670   4.279   4.546 -0.1465 -0.6131 -0.9720
13065SOL     OW41188   3.075   6.970   7.765  0.7623  0.0234  0.6632
13065SOL    HW141189   3.089   7.065   7.763  0.0391  0.1383  0.7480
13065SOL    HW241190   3.024   6.952   7.686 -0.4852 -0.0535  1.4664
13066SOL     OW41191   7.152   1.644   5.865 -0.5134 -0.0727 -0.3223
13066SOL    HW141192   7.072   1.662   5.914 -1.2909 -3.3714 -0.1560
13066SOL    HW241193   7.185   1.562   5.901  1.8940  0.1743 -1.7231
13067SOL     OW41194   2.146   7.705   7.746  0.0138 -0.5284  0.1132
13067SOL    HW141195   2.229   7.699   7.795 -0.3859  1.0264  1.0791
13067SOL    HW241196   2.120   7.797   7.755  0.2541  0.0729 -3.6597
13068SOL     OW41197   6.931   0.071   6.866  0.0448 -0.5030  0.1839
13068SOL    HW141198   6.903   0.152   6.824 -0.6518  0.8559  3.0409
13068SOL    HW241199   7.027   0.076   6.864  0.0238 -0.1700 -0.6117
13069SOL     OW41200   0.259   1.318   0.714  1.0362 -0.3431 -0.3099
13069SOL    HW141201   0.178   1.267   0.710  0.0610  1.0135  0.6934
13069SOL    HW241202   0.309   1.291   0.637 -1.3589  0.3244 -2.2666
13070SOL     OW41203   0.886   1.235   4.612  0.0657 -0.0797 -0.0223
13070SOL    HW141204   0.804   1.227   4.563 -0.9886 -0.7679  1.7626
13070SOL    HW241205   0.937   1.157   4.588 -0.7511 -0.7908  0.5119
13071SOL     OW41206   5.663   4.448   0.054 -0.1320  0.4532 -0.6536
13071SOL    HW141207   5.682   4.407  -0.031 -0.6394 -0.6426 -0.2592
13071SOL    HW241208   5.718   4.526   0.055  2.7203 -1.4013 -0.4979
13072SOL     OW41209   7.318   3.161   7.695  0.3159 -0.2046  0.1089
13072SOL    HW141210   7.239   3.114   7.668  0.6957 -0.8894  0.1482
13072SOL    HW241211   7.296   3.200   7.779  0.2126 -0.9181  0.4214
13073SOL     OW41212   4.295   5.554   6.864 -0.2539  0.2027 -0.2177
13073SOL    HW141213   4.245   5.634   6.875 -0.5524 -0.0496  0.2958
13073SOL    HW241214   4.267   5.497   6.936 -1.2159 -0.9627 -1.4693
13074SOL     OW41215   7.035   4.805   0.338 -0.1314 -0.0799  0.1774
13074SOL    HW141216   7.013   4.798   0.431 -1.0512 -0.4413 -0.0594
13074SOL    HW241217   7.044   4.899   0.322  4.0943 -0.0226  1.5198
13075SOL     OW41218   1.379   2.064   6.293 -0.5527  0.4683  0.7150
13075SOL    HW141219   1.308   2.089   6.233 -1.1736 -1.8822  0.3810
13075SOL    HW241220   1.411   1.980   6.259  0.8871  0.3799  2.1740
13076SOL     OW41221   2.448   0.047   1.413 -0.0376 -0.0869 -0.4549
13076SOL    HW141222   2.510  -0.013   1.455 -1.9595 -0.3994  2.1736
13076SOL    HW241223   2.483   0.134   1.430 -0.1134 -0.2712  0.7719
13077SOL     OW41224   7.067   3.385   4.078 -0.5818 -0.0048 -0.4685
13077SOL    HW141225   7.075   3.424   4.165  0.8365  1.8712 -1.3557
13077SOL    HW241226   7.153   3.348   4.060  0.0531  2.0342 -2.0607
13078SOL     OW41227   7.138   4.584   6.338 -0.0426  0.1508 -0.5812
13078SOL    HW141228   7.204   4.635   6.290  0.2993 -1.0675 -1.4600
13078SOL    HW241229   7.182   4.559   6.420 -0.1253  1.0389 -0.2630
13079SOL     OW41230   7.630   2.535   2.803  0.2700 -0.1058  0.4212
13079SOL    HW141231   7.590   2.456   2.766 -2.0614  0.5052  1.4272
13079SOL    HW241232   7.604   2.605   2.742  2.4562 -0.0623 -0.5553
13080SOL     OW41233   2.106   3.645   8.671 -0.9307 -0.0913 -0.0987
13080SOL    HW141234   2.080   3.728   8.631 -2.8383  0.1591  1.5071
13080SOL    HW241235   2.190   3.664   8.713 -1.5638  1.1742  0.6363
13081SOL     OW41236   7.643   8.144   6.072  0.0208 -1.0565 -0.2247
13081SOL    HW141237   7.712   8.149   6.138 -0.2782 -0.5079  0.0570
13081SOL    HW241238   7.611   8.234   6.064 -1.4730 -1.4796  0.5324
13082SOL     OW41239   1.615   7.822   0.618 -0.2237 -0.3898  0.1881
13082SOL    HW141240   1.636   7.835   0.525  0.8594 -0.4225  0.4264
13082SOL    HW241241   1.596   7.728   0.625  0.7198 -0.5833  0.1984
13083SOL     OW41242   8.469   5.131   7.043 -0.1020  0.5010  0.5851
13083SOL    HW141243   8.380   5.166   7.050 -0.6470 -0.1921 -1.8757
13083SOL    HW241244   8.511   5.154   7.126 -2.3612  1.4186  1.5437
13084SOL     OW41245   7.961   2.593   1.248 -1.0497  0.4113  0.8857
13084SOL    HW141246   7.872   2.565   1.270 -0.5168 -1.3938  0.9136
13084SOL    HW241247   8.003   2.515   1.211  0.0940  1.6095 -0.4932
13085SOL     OW41248   4.189   1.543   0.810  0.0282  0.1958 -0.2064
13085SOL    HW141249   4.144   1.602   0.750  2.9445  1.3784 -1.4190
13085SOL    HW241250   4.204   1.464   0.759  1.9721  0.9758 -0.9292
13086SOL     OW41251   4.996   6.673   4.415  0.1382  0.0867 -0.1454
13086SOL    HW141252   4.957   6.675   4.328  0.0229 -1.5857 -0.1591
13086SOL    HW241253   4.922   6.669   4.475  0.2341 -0.8032 -0.0735
13087SOL     OW41254   3.335   3.222   5.431 -0.3544  0.2019  0.3065
13087SOL    HW141255   3.244   3.209   5.402 -0.1547 -0.1585 -0.1751
13087SOL    HW241256   3.339   3.177   5.515 -1.1528  1.9312  1.3223
13088SOL     OW41257   3.274   8.704   8.177  0.0899 -0.0853 -0.0971
13088SOL    HW141258   3.322   8.667   8.103  0.3693  2.9816 -1.6048
13088SOL    HW241259   3.185   8.717   8.144 -0.5505 -1.2741  1.0866
13089SOL     OW41260   8.650   8.796   7.564 -0.3180 -0.2586 -0.2264
13089SOL    HW141261   8.659   8.824   7.655 -0.5202 -0.8926 -0.0006
13089SOL    HW241262   8.588   8.723   7.568 -1.4653  0.6327 -1.0532
13090SOL     OW41263   3.178   2.059   0.524 -0.7852 -0.1475  0.0035
13090SOL    HW141264   3.094   2.100   0.505 -0.3605  0.5764 -0.3526
13090SOL    HW241265   3.160   1.999   0.596 -1.6238 -0.0677 -0.1361
13091SOL     OW41266   8.205   2.929   6.945  0.0728  0.7427  0.3971
13091SOL    HW141267   8.225   2.889   7.030 -1.0061 -2.1588 -0.5972
13091SOL    HW241268   8.138   2.994   6.965  0.3546  0.6368  1.8417
13092SOL     OW41269   3.907   6.510   6.557 -0.2242  0.4662 -0.4782
13092SOL    HW141270   3.996   6.533   6.585 -0.4857  0.1431  0.6591
13092SOL    HW241271   3.864   6.593   6.541 -0.0658  0.6624  0.0978
13093SOL     OW41272   7.130   7.124   0.707  0.3876 -0.1651 -0.2892
13093SOL    HW141273   7.187   7.105   0.633  0.5952 -1.4550  0.1818
13093SOL    HW241274   7.065   7.053   0.706  1.5695 -1.3642  1.9075
13094SOL     OW41275   6.149   8.190   1.740  0.0212 -1.0519  0.0757
13094SOL    HW141276   6.056   8.194   1.761 -0.0890 -0.0197 -0.5563
13094SOL    HW241277   6.190   8.157   1.820 -0.9141 -1.8158  0.2529
13095SOL     OW41278   1.942   7.805   0.329  0.0340 -0.2500  0.0467
13095SOL    HW141279   1.979   7.829   0.244 -0.2342 -1.4348 -0.4255
13095SOL    HW241280   2.008   7.747   0.368 -0.0947 -0.1540  0.4105
13096SOL     OW41281   0.161   3.303   7.085  0.2957  0.0575 -0.1662
13096SOL    HW141282   0.104   3.360   7.138 -0.7951 -0.8898 -0.2861
13096SOL    HW241283   0.214   3.364   7.034  0.2486  0.9825  0.8421
13097SOL     OW41284   5.463   3.252   1.338  0.2322 -0.3883 -0.1058
13097SOL    HW141285   5.523   3.232   1.410 -0.3737  1.8887  1.1217
13097SOL    HW241286   5.507   3.321   1.288 -0.4558 -0.1602 -0.4098
13098SOL     OW41287   3.262   6.281   7.976 -0.0475 -0.2733 -0.2487
13098SOL    HW141288   3.192   6.345   7.986  0.3535 -0.0270  1.3602
13098SOL    HW241289   3.316   6.292   8.055  0.4396 -2.0931 -0.2678
13099SOL     OW41290   3.312   2.333   6.692 -0.4393 -0.3775  0.0872
13099SOL    HW141291   3.333   2.259   6.750  0.4649 -0.0429  0.1984
13099SOL    HW241292   3.394   2.350   6.645 -0.4369  0.9923  0.5541
13100SOL     OW41293   1.945   6.070   1.862  0.1404  0.2706  0.3306
13100SOL    HW141294   1.993   6.087   1.943  0.6529 -0.9059  0.3036
13100SOL    HW241295   1.946   6.153   1.816  1.2956  0.5418  0.7971
13101SOL     OW41296   0.429   3.258   0.551 -0.2953  0.4073  0.3090
13101SOL    HW141297   0.405   3.192   0.486 -0.4668  2.0702 -1.4045
13101SOL    HW241298   0.374   3.238   0.627 -1.4130 -0.5336 -0.7056
13102SOL     OW41299   3.945   6.521   7.921 -0.4668 -0.9058 -0.0739
13102SOL    HW141300   3.936   6.612   7.951 -0.1669 -0.3853 -1.4723
13102SOL    HW241301   3.881   6.473   7.973 -0.5187  0.0760  0.8126
13103SOL     OW41302   1.778   3.345   2.113 -0.2897  0.3540  0.1494
13103SOL    HW141303   1.704   3.300   2.072  0.6601 -0.1568 -1.0867
13103SOL    HW241304   1.741   3.424   2.150 -1.5776 -0.2497  0.1944
13104SOL     OW41305   2.900   0.590   0.816  0.5168  0.2066 -0.3981
13104SOL    HW141306   2.935   0.648   0.884  0.1480  0.5214 -0.4772
13104SOL    HW241307   2.964   0.519   0.812 -0.3249 -0.7157  1.4679
13105SOL     OW41308   3.136   8.652   5.773 -0.1374 -0.0971 -0.6061
13105SOL    HW141309   3.096   8.567   5.796 -0.9089 -0.0647 -1.7392
13105SOL    HW241310   3.068   8.697   5.722  0.7021  0.7131 -1.0295
13106SOL     OW41311   5.236   2.900   4.991 -0.4964  0.2494 -0.2068
13106SOL    HW141312   5.314   2.867   5.036  0.4605 -0.3303 -2.1687
13106SOL    HW241313   5.165   2.844   5.021  0.7041 -2.2982 -1.7816
13107SOL     OW41314   6.073   6.351   5.515 -0.2145  0.6583 -0.0998
13107SOL    HW141315   5.993   6.314   5.551  0.1832 -2.4885 -2.1270
13107SOL    HW241316   6.045   6.399   5.437 -0.2490  0.4714 -0.2031
13108SOL     OW41317   7.665   4.585   3.974 -0.5409  0.1434 -0.4239
13108SOL    HW141318   7.689   4.667   3.931  0.6345  0.0685  0.0575
13108SOL    HW241319   7.591   4.608   4.031 -0.6925  0.7016 -0.8330
13109SOL     OW41320   3.880   2.916   6.984 -0.4487 -0.1702  0.0716
13109SOL    HW141321   3.924   2.897   7.066 -0.4563 -0.6239 -0.0242
13109SOL    HW241322   3.787   2.900   7.002 -0.5902  0.8900  0.3046
13110SOL     OW41323   2.097   7.261   7.170  0.3393  0.7014 -0.2849
13110SOL    HW141324   2.180   7.271   7.215  0.7123 -1.6593 -0.2978
13110SOL    HW241325   2.082   7.345   7.127  3.0806  0.9838 -0.8658
13111SOL     OW41326   6.703   1.302   4.154 -0.6048 -0.4930 -0.3252
13111SOL    HW141327   6.690   1.351   4.236 -2.7285 -1.4516 -0.0086
13111SOL    HW241328   6.797   1.285   4.151 -0.2816  0.7164  1.2320
13112SOL     OW41329   5.705   1.309   2.813 -0.2081  0.6743 -0.2011
13112SOL    HW141330   5.748   1.391   2.787 -2.8660  2.1166 -0.3562
13112SOL    HW241331   5.768   1.241   2.790  1.1570  2.4937 -2.2545
13113SOL     OW41332   2.623   2.473   1.033  0.2443  0.5754  0.1014
13113SOL    HW141333   2.623   2.543   1.098 -1.7217 -0.3025  1.1478
13113SOL    HW241334   2.561   2.408   1.068  0.3821 -0.6911 -1.8560
13114SOL     OW41335   0.061   0.860   6.829  0.0010 -0.1714 -0.5401
13114SOL    HW141336   0.042   0.848   6.736  1.1784  0.4965 -0.8858
13114SOL    HW241337   0.013   0.790   6.873 -0.0583 -0.8855 -1.7117
13115SOL     OW41338   1.059   6.878   2.062 -0.1729  0.2671 -0.1288
13115SOL    HW141339   0.979   6.907   2.018  0.2029  0.1982 -0.8758
13115SOL    HW241340   1.039   6.885   2.155 -0.9087  0.6373 -0.3059
13116SOL     OW41341   2.022   3.828   5.710 -0.5242  0.1759  0.2693
13116SOL    HW141342   2.040   3.793   5.798 -2.6705  2.5639  1.8257
13116SOL    HW241343   1.931   3.803   5.693 -1.0093  1.9834 -0.0145
13117SOL     OW41344   0.878   6.723   1.171  0.2885  0.0036 -0.3689
13117SOL    HW141345   0.840   6.636   1.154 -0.8317  0.4413 -0.1724
13117SOL    HW241346   0.924   6.713   1.254 -1.3778  0.0432  0.6020
13118SOL     OW41347   8.636   6.207   0.320 -0.3793  0.0496  0.3781
13118SOL    HW141348   8.693   6.175   0.250 -0.8071 -1.0913  0.5227
13118SOL    HW241349   8.656   6.151   0.395 -0.5877  0.6515  0.8888
13119SOL     OW41350   0.973   1.907   0.880  0.5444  0.0105 -0.1217
13119SOL    HW141351   0.885   1.892   0.916 -0.3426  1.6695 -1.4338
13119SOL    HW241352   1.023   1.944   0.953 -0.1863  0.1000  0.3450
13120SOL     OW41353   6.775   3.794   8.220 -0.2677  0.0401 -0.0562
13120SOL    HW141354   6.741   3.715   8.263  1.6178 -0.2740  0.9671
13120SOL    HW241355   6.834   3.761   8.153  0.2259  0.5789  0.1127
13121SOL     OW41356   8.797   4.802   8.574  0.0336  0.2279 -0.4161
13121SOL    HW141357   8.796   4.744   8.498 -0.2396 -1.0983  0.5780
13121SOL    HW241358   8.859   4.762   8.635  0.5808  1.5065 -0.0855
13122SOL     OW41359   4.933   8.424   2.575 -0.1898 -0.0638 -1.4977
13122SOL    HW141360   4.938   8.420   2.479 -2.5177 -1.7627 -1.6236
13122SOL    HW241361   4.847   8.461   2.593  0.1608  0.0924 -0.0437
13123SOL     OW41362   0.333   5.575   0.162 -0.4760 -0.0140  0.5217
13123SOL    HW141363   0.391   5.633   0.211 -0.7549  0.1854  0.6172
13123SOL    HW241364   0.393   5.519   0.112 -0.2066  1.2236 -0.6131
13124SOL     OW41365   2.941   5.203   2.830  0.6964  0.3960 -0.3460
13124SOL    HW141366   2.865   5.183   2.885  0.4229  0.5348 -0.6729
13124SOL    HW241367   3.003   5.247   2.889  0.7147 -0.1286  0.0322
13125SOL     OW41368   6.663   6.170   8.781 -0.1560  0.3095  0.4695
13125SOL    HW141369   6.611   6.091   8.762  0.1497  0.6036 -1.8838
13125SOL    HW241370   6.614   6.241   8.740  1.8183  0.6573 -1.4797
13126SOL     OW41371   5.952   4.272   6.045 -0.2277  0.0912 -0.0180
13126SOL    HW141372   6.021   4.307   6.102 -0.3431  0.5676 -0.1641
13126SOL    HW241373   5.871   4.310   6.080 -0.6168 -1.6927  1.1289
13127SOL     OW41374   0.225   2.794   4.678  0.3246  0.0716  0.1783
13127SOL    HW141375   0.137   2.802   4.716  1.0037 -1.2895  2.2209
13127SOL    HW241376   0.284   2.810   4.751  1.7410 -1.5930 -0.5111
13128SOL     OW41377   3.354   4.926   8.422 -0.0679 -0.4706  0.5008
13128SOL    HW141378   3.275   4.951   8.374  0.9885  0.1469 -0.9776
13128SOL    HW241379   3.355   4.830   8.417 -0.2014 -0.4320 -0.3360
13129SOL     OW41380   3.667   6.380   1.802  0.1055  0.2214 -0.1378
13129SOL    HW141381   3.666   6.290   1.771 -0.3638  0.4991 -0.9760
13129SOL    HW241382   3.669   6.373   1.898  1.4118 -0.6607 -0.2161
13130SOL     OW41383   1.564   1.342   4.214 -0.3220 -0.0991  0.3005
13130SOL    HW141384   1.579   1.421   4.161 -0.0895 -0.3250  0.0310
13130SOL    HW241385   1.574   1.269   4.153  1.1939 -0.4288  0.8849
13131SOL     OW41386   0.613   4.037   3.783 -0.7788 -0.2562  0.0327
13131SOL    HW141387   0.641   4.015   3.872  0.4563 -0.8906 -0.4830
13131SOL    HW241388   0.519   4.053   3.790 -0.7622 -0.6545  1.3778
13132SOL     OW41389   7.605   1.901   6.843  0.3017  0.1577 -0.1966
13132SOL    HW141390   7.549   1.870   6.772 -0.5093  0.7458  0.1715
13132SOL    HW241391   7.693   1.870   6.820 -0.0987 -0.4070 -1.0012
13133SOL     OW41392   5.426   8.148   8.209 -0.0711  0.0428 -0.5065
13133SOL    HW141393   5.453   8.063   8.175  1.5499  0.1630  0.3227
13133SOL    HW241394   5.359   8.179   8.149  1.2846 -0.5951 -2.4280
13134SOL     OW41395   8.422   6.080   8.237  0.3649 -0.2536 -0.4251
13134SOL    HW141396   8.481   6.123   8.175  0.2142 -0.5335 -0.7670
13134SOL    HW241397   8.411   6.143   8.308 -0.0758  0.3828 -1.0460
13135SOL     OW41398   7.243   2.914   5.002  0.1456 -0.1021  0.1244
13135SOL    HW141399   7.301   2.942   4.931 -1.1517  0.4002 -0.7846
13135SOL    HW241400   7.157   2.946   4.976 -0.8488 -2.1855  0.6490
13136SOL     OW41401   1.230   4.516   4.438  0.2668  0.7670  0.4397
13136SOL    HW141402   1.152   4.565   4.461  0.5579  1.4166  0.0530
13136SOL    HW241403   1.303   4.570   4.470  0.5633  0.2062  0.7322
13137SOL     OW41404   7.541   8.395   5.445  0.4548 -0.6110  0.2330
13137SOL    HW141405   7.601   8.456   5.488 -0.6009  0.1893  0.6429
13137SOL    HW241406   7.455   8.438   5.452 -0.3479 -2.1784  0.5992
13138SOL     OW41407   4.665   4.799   1.653 -0.1619  0.1522  0.4578
13138SOL    HW141408   4.642   4.706   1.660 -0.0096  0.1221  0.5591
13138SOL    HW241409   4.627   4.827   1.570  0.9004 -0.3214 -0.2018
13139SOL     OW41410   7.895   7.839   6.279 -0.5301  0.1505 -0.1855
13139SOL    HW141411   7.943   7.902   6.333  1.5171 -1.6734  0.2858
13139SOL    HW241412   7.939   7.841   6.195  0.2652 -1.3429  0.1579
13140SOL     OW41413   1.261   6.419   4.483  0.2021  0.5169  0.2346
13140SOL    HW141414   1.279   6.513   4.476  0.9514  0.4328  0.9373
13140SOL    HW241415   1.297   6.382   4.403  0.0771  0.8028  0.0440
13141SOL     OW41416   0.658   7.122   4.472 -0.0592 -0.1333  0.6272
13141SOL    HW141417   0.721   7.050   4.462  1.2802  0.9909  0.7033
13141SOL    HW241418   0.664   7.147   4.564 -1.0797 -0.4004  0.7796
13142SOL     OW41419   3.314   0.389   7.985  0.0769 -0.1379 -1.4252
13142SOL    HW141420   3.352   0.453   8.045 -1.0267 -1.3742  0.7419
13142SOL    HW241421   3.380   0.377   7.917  2.4358 -0.2497  0.7231
13143SOL     OW41422   7.306   6.070   3.863  0.4562 -0.0431 -0.8177
13143SOL    HW141423   7.388   6.042   3.822  0.3936  1.0297 -1.7292
13143SOL    HW241424   7.270   5.990   3.901  1.9633 -0.5144 -0.3101
13144SOL     OW41425   8.864   7.858   8.847  0.1789 -0.0662 -0.0159
13144SOL    HW141426   8.894   7.878   8.759  0.6747  1.5553  0.4757
13144SOL    HW241427   8.769   7.853   8.839  0.0291  2.1596 -0.3245
13145SOL     OW41428   2.973   2.345   7.625 -0.4138 -0.0057 -0.4491
13145SOL    HW141429   2.948   2.254   7.608  1.4991 -0.5268 -0.7359
13145SOL    HW241430   3.033   2.341   7.699 -0.7259  1.1138 -0.1027
13146SOL     OW41431   2.609   3.634   2.930 -0.4482 -0.8693 -0.0408
13146SOL    HW141432   2.613   3.729   2.920  3.3359 -0.7102  1.3043
13146SOL    HW241433   2.535   3.619   2.990  0.4821  1.5525  1.8857
13147SOL     OW41434   5.597   5.759   1.261  0.2245 -0.3604  0.4323
13147SOL    HW141435   5.563   5.670   1.255 -1.7483  0.4117 -0.6353
13147SOL    HW241436   5.644   5.772   1.178  1.6526 -0.7971  1.1326
13148SOL     OW41437   0.300   7.017   1.032  0.0625  0.4175 -0.3455
13148SOL    HW141438   0.375   6.958   1.041  0.1698  0.5330 -0.4682
13148SOL    HW241439   0.234   6.983   1.092 -0.9520 -1.5179 -2.3942
13149SOL     OW41440   0.983   1.965   6.093 -0.1012 -0.4669  0.1007
13149SOL    HW141441   1.011   1.937   6.180 -2.1809 -0.4641  0.8321
13149SOL    HW241442   1.031   1.909   6.032  2.7604  0.7123  1.1063
13150SOL     OW41443   5.604   2.547   6.730  0.0980  0.8499  0.1246
13150SOL    HW141444   5.614   2.642   6.730  1.0941  0.7532  0.3056
13150SOL    HW241445   5.626   2.520   6.819  2.0510  0.2550 -0.4813
13151SOL     OW41446   4.709   4.043   7.704 -0.0733  0.1798 -0.1187
13151SOL    HW141447   4.713   3.972   7.767 -0.4472  0.7059  0.5054
13151SOL    HW241448   4.771   4.018   7.636  0.1675 -0.4986  0.3411
13152SOL     OW41449   6.876   0.072   2.247  0.5074  0.2404 -0.3101
13152SOL    HW141450   6.812   0.013   2.285  0.1294  0.4721 -0.5791
13152SOL    HW241451   6.841   0.159   2.264  0.6167  0.3591 -0.6907
13153SOL     OW41452   8.055   4.213   0.651  0.5215 -0.2704  0.5447
13153SOL    HW141453   8.069   4.302   0.618 -0.4206  0.0697  1.0182
13153SOL    HW241454   8.126   4.199   0.715  0.9434 -0.0391  0.1300
13154SOL     OW41455   1.689   5.975   7.002  0.1750  0.5408 -0.0256
13154SOL    HW141456   1.781   5.969   6.976 -0.0926 -0.7718 -0.7823
13154SOL    HW241457   1.643   5.994   6.920 -0.4130 -0.8897 -0.0619
13155SOL     OW41458   0.750   6.724   2.182  0.0536 -0.4916 -0.0877
13155SOL    HW141459   0.731   6.791   2.247 -0.5346  0.0138 -0.7688
13155SOL    HW241460   0.844   6.709   2.189  0.1320  0.1709  0.2906
13156SOL     OW41461   8.356   3.286   0.357 -0.0095 -0.3315  0.2771
13156SOL    HW141462   8.327   3.311   0.445 -2.7015 -1.5929 -0.1453
13156SOL    HW241463   8.436   3.236   0.372 -0.6520 -0.9095  2.0948
13157SOL     OW41464   5.270   1.751   7.459  0.0920  0.1409  0.8202
13157SOL    HW141465   5.219   1.832   7.473  0.9164  0.9217 -0.4775
13157SOL    HW241466   5.219   1.683   7.503 -2.0791  0.8900 -0.3838
13158SOL     OW41467   0.039   4.440   3.584  0.2651 -0.3251  0.0139
13158SOL    HW141468   0.040   4.364   3.643  1.3643 -0.5226 -0.2490
13158SOL    HW241469   0.023   4.515   3.642 -1.2365 -0.7764  0.2281
13159SOL     OW41470   0.435   3.237   1.660  0.5566 -0.3095  0.2162
13159SOL    HW141471   0.401   3.315   1.702  0.6183 -1.5009  2.6694
13159SOL    HW241472   0.438   3.259   1.567 -2.3969  1.4645  0.4237
13160SOL     OW41473   1.271   1.839   6.156 -0.4754  0.2105  0.1285
13160SOL    HW141474   1.240   1.752   6.133 -0.4468  0.5511 -1.3590
13160SOL    HW241475   1.219   1.865   6.232 -0.6691 -0.9851  0.4214
13161SOL     OW41476   6.344   7.315   3.870  0.1408 -0.4110 -0.6053
13161SOL    HW141477   6.302   7.332   3.954  2.5607  1.4261  0.3797
13161SOL    HW241478   6.435   7.344   3.883  0.6188 -0.0776 -3.8364
13162SOL     OW41479   8.062   4.483   7.115 -0.0600  0.4249  0.1394
13162SOL    HW141480   8.039   4.543   7.186  1.5961  1.2696 -0.0000
13162SOL    HW241481   8.061   4.396   7.156 -0.1132  0.7888  0.9318
13163SOL     OW41482   2.892   0.458   1.156  0.5080  0.0516  0.3932
13163SOL    HW141483   2.931   0.487   1.073  0.1391  0.0398  0.2159
13163SOL    HW241484   2.952   0.491   1.223  0.4753  0.6074  0.1541
13164SOL     OW41485   4.287   8.181   1.175 -0.5386 -0.1957 -0.3390
13164SOL    HW141486   4.268   8.122   1.248  1.4618  0.0113  0.4073
13164SOL    HW241487   4.367   8.227   1.201 -0.5123  0.8568 -2.1025
13165SOL     OW41488   2.021   2.672   6.284 -0.1821  0.5601  0.0086
13165SOL    HW141489   2.017   2.766   6.266  0.9823  0.4685 -0.8598
13165SOL    HW241490   1.937   2.638   6.255  0.3459  0.9740 -2.1643
13166SOL     OW41491   7.835   7.524   8.519  0.0386  0.1751  0.4442
13166SOL    HW141492   7.879   7.539   8.603 -1.0345  1.7991  0.7673
13166SOL    HW241493   7.840   7.429   8.506  0.1705 -0.1325  2.3830
13167SOL     OW41494   3.836   4.683   6.750  0.4179  0.2467  0.0404
13167SOL    HW141495   3.850   4.766   6.705 -1.4517  1.1668  1.0342
13167SOL    HW241496   3.808   4.622   6.681  2.1466  0.3010 -0.7505
13168SOL     OW41497   5.838   1.303   4.701 -0.2542 -0.0874  0.3412
13168SOL    HW141498   5.927   1.315   4.734 -0.6114 -0.3190  1.4433
13168SOL    HW241499   5.796   1.387   4.717 -0.8943 -0.6754  2.0622
13169SOL     OW41500   6.546   2.995   5.155 -0.1414 -0.6926  0.0153
13169SOL    HW141501   6.551   2.981   5.250 -0.5523  1.4427  0.4162
13169SOL    HW241502   6.457   2.969   5.131 -0.5065  0.0740  0.4960
13170SOL     OW41503   2.511   0.416   1.890  0.5736  0.2411 -0.1248
13170SOL    HW141504   2.416   0.403   1.887  0.3772  1.4538  0.2736
13170SOL    HW241505   2.533   0.455   1.805  0.3108  2.3042  0.7170
13171SOL     OW41506   3.932   1.695   2.433  0.0230  0.1092  0.9415
13171SOL    HW141507   3.882   1.683   2.353 -0.1682  0.1115  1.0615
13171SOL    HW241508   3.879   1.654   2.501 -0.4068  1.2072  1.2743
13172SOL     OW41509   3.386   7.613   4.031  0.2383  0.1333 -0.1624
13172SOL    HW141510   3.407   7.651   4.116  1.6864 -1.0162  0.0288
13172SOL    HW241511   3.465   7.624   3.979 -0.2207 -0.2509 -0.9687
13173SOL     OW41512   8.695   7.783   4.430  0.3467 -0.1172 -0.0568
13173SOL    HW141513   8.771   7.759   4.377  1.0426 -2.0861  1.6914
13173SOL    HW241514   8.725   7.860   4.479  1.1446 -0.6878  0.3865
13174SOL     OW41515   2.308   1.275   7.049 -0.4309  0.0784 -0.6036
13174SOL    HW141516   2.279   1.190   7.016 -0.9303 -0.6089  1.4135
13174SOL    HW241517   2.233   1.308   7.098  0.5681  0.4941  0.7106
13175SOL     OW41518   6.156   0.707   4.507  0.2154  0.2141  0.1109
13175SOL    HW141519   6.073   0.756   4.501  0.4527  0.5869 -0.1595
13175SOL    HW241520   6.224   0.774   4.502  0.5404  0.1471  2.3352
13176SOL     OW41521   0.112   6.326   6.845 -0.6826  0.5802  0.0239
13176SOL    HW141522   0.043   6.387   6.820 -0.3998  1.0263  0.3335
13176SOL    HW241523   0.194   6.370   6.819 -0.5631 -0.8129 -2.2908
13177SOL     OW41524   8.712   8.590   5.034 -0.0214 -0.6328 -0.4705
13177SOL    HW141525   8.804   8.564   5.028  0.2709 -0.1784  1.4230
13177SOL    HW241526   8.709   8.675   4.991  0.2458 -1.0751 -1.3794
13178SOL     OW41527   3.201   7.181   4.537  0.4076  0.3358 -0.2596
13178SOL    HW141528   3.171   7.104   4.487 -0.0812  1.9399 -2.6286
13178SOL    HW241529   3.292   7.161   4.558 -0.1949 -1.6185  0.7943
13179SOL     OW41530   3.214   4.533   4.887 -0.1280  0.1959 -0.7434
13179SOL    HW141531   3.211   4.541   4.982  1.4140  0.2371 -0.6634
13179SOL    HW241532   3.306   4.512   4.868 -0.7479 -1.6165 -2.0902
13180SOL     OW41533   8.225   0.923   4.603  0.1149 -0.8149 -0.9669
13180SOL    HW141534   8.158   0.870   4.561 -0.6782  0.0699 -0.8364
13180SOL    HW241535   8.195   1.014   4.593  1.3137 -0.3961 -0.9642
13181SOL     OW41536   1.691   1.733   8.092 -0.8581 -0.1248  0.2427
13181SOL    HW141537   1.635   1.810   8.084  0.3103  0.6977 -0.3349
13181SOL    HW241538   1.759   1.759   8.154 -1.1011 -1.1060  0.9308
13182SOL     OW41539   7.903   3.285   2.221 -0.4618  0.4818 -0.1370
13182SOL    HW141540   7.892   3.324   2.134  1.1241  1.5318  0.0911
13182SOL    HW241541   7.874   3.354   2.281 -2.8731 -0.7178  0.2140
13183SOL     OW41542   0.114   0.098   2.026 -0.2709  0.1497 -0.4626
13183SOL    HW141543   0.088   0.006   2.025 -0.7009  0.2675 -0.4133
13183SOL    HW241544   0.066   0.136   2.100 -0.6797  0.5711 -0.9275
13184SOL     OW41545   4.989   5.922   0.388 -0.1993 -0.7088  0.0142
13184SOL    HW141546   4.961   5.909   0.298 -0.6876  0.5307 -0.0189
13184SOL    HW241547   4.971   6.014   0.407  2.5700 -0.1678  0.4495
13185SOL     OW41548   7.343   6.181   2.548 -0.3706  0.6493 -0.1226
13185SOL    HW141549   7.438   6.194   2.539 -0.3249  0.4554  0.0737
13185SOL    HW241550   7.322   6.217   2.634 -0.2878 -0.3290  0.3096
13186SOL     OW41551   6.540   2.646   1.699  0.0887 -0.3125 -0.1249
13186SOL    HW141552   6.565   2.576   1.759 -0.0062 -1.4920 -1.4069
13186SOL    HW241553   6.621   2.668   1.653 -0.3571 -1.3168 -1.4420
13187SOL     OW41554   4.958   8.817   1.119 -0.8558 -0.1134 -0.2636
13187SOL    HW141555   5.009   8.738   1.099 -1.5582 -0.6709  0.0702
13187SOL    HW241556   5.017   8.873   1.167  0.0257  0.0767 -1.5259
13188SOL     OW41557   3.815   4.196   4.611 -0.1447  0.8003 -0.1679
13188SOL    HW141558   3.794   4.222   4.701  0.8702  1.1231 -0.0148
13188SOL    HW241559   3.910   4.196   4.608 -0.1350  2.8792 -1.8539
13189SOL     OW41560   2.375   0.446   3.804 -0.4569 -0.1785 -0.0552
13189SOL    HW141561   2.408   0.510   3.868 -0.6945 -0.8885  0.7986
13189SOL    HW241562   2.454   0.412   3.761 -0.1966 -0.5086  0.6593
13190SOL     OW41563   4.926   6.959   0.020 -0.1757 -0.4731 -0.2567
13190SOL    HW141564   4.857   7.022   0.038  0.3102 -0.5702  2.2435
13190SOL    HW241565   4.899   6.880   0.067  1.8137 -0.3595  1.2030
13191SOL     OW41566   1.799   3.725   4.686  0.0321 -0.2654 -0.3595
13191SOL    HW141567   1.837   3.650   4.640  2.3866  1.6192 -1.7368
13191SOL    HW241568   1.721   3.748   4.636 -1.5729 -2.5302  0.9019
13192SOL     OW41569   5.200   8.712   5.941 -0.3284  0.4413 -0.5145
13192SOL    HW141570   5.157   8.755   6.014  1.8768 -0.3611  1.4108
13192SOL    HW241571   5.273   8.769   5.918  0.6151 -0.5866 -0.1998
13193SOL     OW41572   3.763   7.209   2.514  0.5966 -0.4844 -0.4258
13193SOL    HW141573   3.796   7.286   2.467  1.4047 -0.7026 -0.2284
13193SOL    HW241574   3.673   7.198   2.483  0.7502  0.0515 -1.0666
13194SOL     OW41575   0.098   4.556   2.049 -0.6835 -0.1548 -0.1253
13194SOL    HW141576   0.025   4.500   2.076 -0.8944 -0.5722 -1.4943
13194SOL    HW241577   0.063   4.645   2.054 -1.0127 -0.2917  0.0483
13195SOL     OW41578   3.550   6.875   0.333  0.1935  0.0652  0.0821
13195SOL    HW141579   3.617   6.849   0.396  0.1629  0.0521  0.1093
13195SOL    HW241580   3.476   6.817   0.352  0.4925 -0.5255 -0.5372
13196SOL     OW41581   2.849   3.852   7.269 -0.1401  0.1042 -0.2552
13196SOL    HW141582   2.884   3.936   7.238 -1.0330 -0.3911 -2.8053
13196SOL    HW241583   2.894   3.786   7.217 -2.8772 -0.6916 -1.8138
13197SOL     OW41584   8.835   4.175   3.039 -0.3698  0.3035  0.0618
13197SOL    HW141585   8.873   4.261   3.054 -0.7721  0.4168  0.4554
13197SOL    HW241586   8.846   4.159   2.945 -0.3002  0.7848 -0.0111
13198SOL     OW41587   1.001   6.028   7.927 -0.2793 -0.4401 -0.0315
13198SOL    HW141588   0.907   6.009   7.924 -0.1651 -1.0468  0.0470
13198SOL    HW241589   1.008   6.101   7.989 -0.9598  1.4088 -2.0034
13199SOL     OW41590   6.056   0.494   3.252 -0.2199 -0.6673  0.6083
13199SOL    HW141591   6.077   0.554   3.181 -0.4143  0.2814  1.3244
13199SOL    HW241592   6.111   0.417   3.236  0.9225  0.1834  0.3164
13200SOL     OW41593   4.861   0.091   5.957  0.0811  0.2114 -0.6112
13200SOL    HW141594   4.938   0.064   6.006 -0.5858 -0.0239  0.3341
13200SOL    HW241595   4.852   0.024   5.888  1.2291  0.7509 -1.3103
13201SOL     OW41596   5.374   2.779   8.663 -0.7392 -0.3665  0.0559
13201SOL    HW141597   5.447   2.721   8.679 -0.4934  0.1946  1.0871
13201SOL    HW241598   5.414   2.862   8.636 -1.1128 -0.9165 -2.4033
13202SOL     OW41599   2.303   5.200   8.161 -0.0143 -0.0983  0.0783
13202SOL    HW141600   2.273   5.152   8.238  0.7968 -1.1301 -0.2326
13202SOL    HW241601   2.253   5.281   8.163 -0.9392 -0.6683  0.9777
13203SOL     OW41602   4.074   8.421   4.917 -0.2573  0.0800  0.0605
13203SOL    HW141603   4.059   8.483   4.989 -0.9160  0.3202 -0.2722
13203SOL    HW241604   4.148   8.368   4.946  0.6022  1.2989  0.1696
13204SOL     OW41605   8.431   7.533   4.225 -0.7465 -0.2830  0.2904
13204SOL    HW141606   8.453   7.501   4.312 -2.7430 -0.9361  0.5985
13204SOL    HW241607   8.463   7.623   4.224  0.9841 -0.8487  0.9896
13205SOL     OW41608   4.298   7.283   1.811 -0.3431 -0.3611 -0.2730
13205SOL    HW141609   4.296   7.378   1.820 -1.5618 -0.4480  0.6866
13205SOL    HW241610   4.387   7.258   1.836 -0.4290  0.4172  0.8565
13206SOL     OW41611   3.086   0.188   1.051 -0.6570  0.3161 -0.0276
13206SOL    HW141612   3.171   0.194   1.096 -0.8898  0.7591  0.3609
13206SOL    HW241613   3.097   0.240   0.972 -0.7770  0.9443  0.3623
13207SOL     OW41614   1.536   3.270   4.153  0.7089 -0.4021 -0.0298
13207SOL    HW141615   1.481   3.206   4.107 -0.7430  0.7755  0.0140
13207SOL    HW241616   1.506   3.268   4.243  1.7561 -0.7938  0.3236
13208SOL     OW41617   7.021   8.568   8.573  0.2472  0.4425 -0.1765
13208SOL    HW141618   7.046   8.533   8.487 -1.5762 -2.1306  0.2039
13208SOL    HW241619   6.929   8.593   8.562  0.6860  2.4264  0.4156
13209SOL     OW41620   3.085   5.063   8.724  0.2810  0.4394 -0.2401
13209SOL    HW141621   3.014   5.125   8.741  0.4836 -0.2175  4.2154
13209SOL    HW241622   3.164   5.116   8.722  0.0650  0.7487 -1.3076
13210SOL     OW41623   7.875   0.086   6.407 -0.0361 -0.6220  0.0503
13210SOL    HW141624   7.888  -0.008   6.394  1.7125 -0.6017  1.3841
13210SOL    HW241625   7.855   0.095   6.500 -1.1397  0.2701 -0.2470
13211SOL     OW41626   4.991   3.923   0.744  0.3320  0.1919 -0.1721
13211SOL    HW141627   5.085   3.909   0.728  0.2790  0.0327 -0.3436
13211SOL    HW241628   4.983   4.017   0.758  0.5888  0.1427  0.3196
13212SOL     OW41629   2.255   8.123   6.720  0.0580 -0.2311  0.4830
13212SOL    HW141630   2.232   8.215   6.731 -1.2554 -0.3512 -0.8537
13212SOL    HW241631   2.331   8.110   6.776 -1.0997  1.0848  2.4689
13213SOL     OW41632   7.120   7.802   4.277 -0.6243 -0.8228 -0.2337
13213SOL    HW141633   7.058   7.755   4.334 -0.6848 -0.2583  0.1750
13213SOL    HW241634   7.195   7.743   4.270 -0.8932 -1.1859 -0.1097
13214SOL     OW41635   2.999   7.615   4.933 -0.3335  0.0416 -0.2470
13214SOL    HW141636   2.960   7.697   4.901 -1.6398  0.3110  1.8783
13214SOL    HW241637   2.949   7.547   4.888  0.0805  0.3870 -1.2608
13215SOL     OW41638   0.613   1.616   1.330 -0.5183  0.0641 -0.1345
13215SOL    HW141639   0.566   1.642   1.409 -0.1973 -1.9940  0.7932
13215SOL    HW241640   0.544   1.593   1.267 -0.7618 -0.1893  0.2249
13216SOL     OW41641   6.341   0.724   1.501 -0.3808 -0.3378  0.1451
13216SOL    HW141642   6.381   0.704   1.586 -0.0204 -1.6222 -0.2984
13216SOL    HW241643   6.368   0.814   1.483  1.5282 -0.8175  0.3393
13217SOL     OW41644   6.249   7.906   5.742 -0.0553 -0.0343  0.1409
13217SOL    HW141645   6.216   7.979   5.689  2.0584  0.7338 -0.2394
13217SOL    HW241646   6.324   7.873   5.692  0.3618 -1.0377  1.3813
13218SOL     OW41647   8.324   5.451   5.604  0.9482 -0.0286  0.2066
13218SOL    HW141648   8.404   5.435   5.554 -1.0258 -0.4835 -3.1106
13218SOL    HW241649   8.278   5.367   5.604 -0.7230  0.8402 -0.3506
13219SOL     OW41650   4.517   2.924   1.448  0.0556 -0.0854  0.7889
13219SOL    HW141651   4.475   2.904   1.532 -0.9382  0.1483  0.3655
13219SOL    HW241652   4.448   2.910   1.383  0.8382 -0.3569  0.0004
13220SOL     OW41653   1.423   6.504   5.388  1.0174  0.0538  0.1543
13220SOL    HW141654   1.493   6.561   5.356  1.2461  0.1614  0.8159
13220SOL    HW241655   1.397   6.544   5.471  0.5318 -0.2838  0.1679
13221SOL     OW41656   0.890   5.258   0.979 -0.1293 -0.1232 -0.0892
13221SOL    HW141657   0.831   5.255   1.054  0.0568 -0.0727  0.0614
13221SOL    HW241658   0.839   5.223   0.906 -0.4149  0.1275 -0.0095
13222SOL     OW41659   7.593   8.183   5.295  0.1259 -0.0017 -0.3019
13222SOL    HW141660   7.684   8.169   5.269  0.6596 -1.3788  2.0002
13222SOL    HW241661   7.591   8.272   5.330  0.3418  0.3433 -1.1276
13223SOL     OW41662   6.515   2.753   1.987 -0.1009  0.0361  0.4018
13223SOL    HW141663   6.585   2.778   1.927  0.4017 -1.0042  0.5252
13223SOL    HW241664   6.438   2.744   1.931 -0.1575  1.2297  0.2715
13224SOL     OW41665   3.140   3.750   1.882 -0.1524  0.0022  0.3993
13224SOL    HW141666   3.179   3.764   1.796  0.5475  1.8525  0.9744
13224SOL    HW241667   3.063   3.806   1.882  0.7211  1.2547  1.5106
13225SOL     OW41668   4.615   6.357   5.728 -0.1476 -0.1553  0.2813
13225SOL    HW141669   4.697   6.325   5.692 -0.2791 -0.2149  0.0338
13225SOL    HW241670   4.634   6.447   5.755  0.0449 -0.2260  0.3835
13226SOL     OW41671   7.483   2.626   0.276  0.3027  0.9353  0.2742
13226SOL    HW141672   7.541   2.696   0.244  1.3581  0.4805  1.1275
13226SOL    HW241673   7.398   2.668   0.286  0.0745  1.2878 -2.3896
13227SOL     OW41674   6.650   5.799   8.550 -0.2840 -0.0782 -0.4546
13227SOL    HW141675   6.683   5.863   8.488  2.0328  0.2245  0.9747
13227SOL    HW241676   6.601   5.850   8.614  0.8430  0.1752  0.2180
13228SOL     OW41677   3.677   7.488   5.766 -0.0636  0.2897  0.0405
13228SOL    HW141678   3.610   7.470   5.831 -1.8311 -0.9652 -1.9930
13228SOL    HW241679   3.633   7.544   5.701  0.6782 -0.8237 -1.5026
13229SOL     OW41680   1.962   3.258   4.873  0.3349  0.4402  0.0888
13229SOL    HW141681   2.016   3.257   4.952  1.3389  1.5300 -0.5574
13229SOL    HW241682   2.021   3.287   4.803 -0.6625  0.0248 -0.9734
13230SOL     OW41683   0.506   4.228   2.140  0.0537  0.1307 -0.2406
13230SOL    HW141684   0.487   4.178   2.060  0.1509 -0.6347  0.1974
13230SOL    HW241685   0.431   4.285   2.151  0.3281  0.7055 -1.2216
13231SOL     OW41686   1.787   5.904   0.028  0.1749 -0.1613  0.4488
13231SOL    HW141687   1.801   5.919  -0.066  2.2258  0.3767  0.7854
13231SOL    HW241688   1.866   5.938   0.069 -0.4472 -0.8910  2.3442
13232SOL     OW41689   0.989   8.840   0.413  0.2605 -0.1667 -0.6130
13232SOL    HW141690   0.965   8.932   0.415  1.3947  0.1266  0.7239
13232SOL    HW241691   0.954   8.808   0.329 -0.7241  1.2894 -0.7932
13233SOL     OW41692   7.495   2.911   6.712 -0.2159  0.3272  0.3340
13233SOL    HW141693   7.477   2.932   6.620 -1.7596  2.5823  1.0855
13233SOL    HW241694   7.416   2.935   6.759  1.7099  2.6624  2.7240
13234SOL     OW41695   3.050   1.966   0.198 -0.4340  0.6876 -0.3346
13234SOL    HW141696   3.138   1.931   0.190  0.7067  3.3291 -0.4789
13234SOL    HW241697   3.014   1.925   0.277  2.0125  1.5842  1.3748
13235SOL     OW41698   1.674   8.829   3.348  0.2145 -0.0050  0.2759
13235SOL    HW141699   1.763   8.855   3.324 -0.2899 -0.2599 -2.2181
13235SOL    HW241700   1.670   8.736   3.326 -0.4385 -0.1945  1.1483
13236SOL     OW41701   1.385   8.158   4.742 -0.5035 -0.7060 -0.2829
13236SOL    HW141702   1.456   8.172   4.679  0.5701 -0.7392  0.8804
13236SOL    HW241703   1.330   8.236   4.732  1.5014  0.9997  1.0635
13237SOL     OW41704   5.822   5.570   6.088  0.0607  0.0610  0.6357
13237SOL    HW141705   5.757   5.503   6.066  0.7052 -0.2339 -0.4354
13237SOL    HW241706   5.772   5.637   6.135 -1.2507  0.3296 -1.0344
13238SOL     OW41707   4.303   2.102   0.380 -0.1889  0.0615 -0.6590
13238SOL    HW141708   4.219   2.135   0.412 -0.2298 -2.1479  1.8184
13238SOL    HW241709   4.284   2.013   0.352  1.2070 -0.2437 -0.7083
13239SOL     OW41710   6.691   8.554   0.667  0.1592  0.1787  0.0080
13239SOL    HW141711   6.757   8.529   0.602 -0.9750 -2.0634 -0.3919
13239SOL    HW241712   6.647   8.630   0.629 -0.1899 -0.8270 -1.6911
13240SOL     OW41713   7.135   0.795   2.037 -0.2062 -0.4915  0.1716
13240SOL    HW141714   7.214   0.788   2.090  0.9377  0.1836 -1.3815
13240SOL    HW241715   7.088   0.713   2.053  1.1670 -1.2282  0.5554
13241SOL     OW41716   4.895   2.655   6.225 -0.1551  0.3240 -0.3801
13241SOL    HW141717   4.915   2.719   6.157  1.1842 -0.9856 -1.2573
13241SOL    HW241718   4.838   2.703   6.286 -0.0316  2.0249 -1.5285
13242SOL     OW41719   7.524   6.225   6.659  0.1601  0.3544 -0.9784
13242SOL    HW141720   7.490   6.159   6.719 -0.6524  1.4201 -0.2279
13242SOL    HW241721   7.486   6.203   6.574  1.8327 -1.5549 -1.3080
13243SOL     OW41722   4.064   2.778   2.898 -0.4680 -0.1005  0.1423
13243SOL    HW141723   4.157   2.764   2.880  0.1208  2.8043  0.3788
13243SOL    HW241724   4.041   2.853   2.842 -2.0475  0.6422  1.7092
13244SOL     OW41725   1.377   3.933   7.677  0.3065 -0.4288  0.2092
13244SOL    HW141726   1.300   3.891   7.715 -0.2422 -0.3025 -0.7245
13244SOL    HW241727   1.351   4.025   7.666  0.7661 -0.2799  0.3270
13245SOL     OW41728   6.392   1.480   3.541  0.2376 -0.4242  0.5642
13245SOL    HW141729   6.474   1.488   3.493 -0.8543 -0.1426 -1.3532
13245SOL    HW241730   6.363   1.390   3.526 -0.9910  0.1680 -0.8870
13246SOL     OW41731   5.613   2.591   2.651 -0.2242  0.7975  0.4374
13246SOL    HW141732   5.642   2.562   2.737 -2.2604  0.2435  1.0064
13246SOL    HW241733   5.542   2.653   2.669 -0.9956  0.3339 -0.8271
13247SOL     OW41734   0.235   2.949   6.781  0.0153  0.2849  0.5535
13247SOL    HW141735   0.156   2.978   6.737 -0.6288 -1.5278  0.4327
13247SOL    HW241736   0.279   2.892   6.718  0.8634  0.4142  1.0105
13248SOL     OW41737   3.138   6.879   6.075  0.4409  0.2799 -0.3391
13248SOL    HW141738   3.100   6.943   6.015 -1.6973 -2.9519 -2.7570
13248SOL    HW241739   3.228   6.869   6.045 -0.2967 -0.5110 -2.4653
13249SOL     OW41740   1.953   3.396   4.053 -0.0791  0.0113 -0.1166
13249SOL    HW141741   2.016   3.467   4.046  0.8239 -0.6872  0.6899
13249SOL    HW241742   1.868   3.440   4.061  0.2289  0.9617 -1.6020
13250SOL     OW41743   2.169   0.159   8.037 -0.0972  0.3757 -0.3018
13250SOL    HW141744   2.160   0.252   8.015  1.6175  0.2945 -1.5695
13250SOL    HW241745   2.252   0.154   8.086 -0.5392 -0.4010  0.4022
13251SOL     OW41746   5.133   0.477   8.143  0.0515  0.0257  0.0465
13251SOL    HW141747   5.120   0.388   8.176  2.5409  0.0213  1.2810
13251SOL    HW241748   5.090   0.478   8.058 -0.9483 -2.0223  0.4675
13252SOL     OW41749   1.574   4.403   4.872 -0.2617  0.2855  0.2572
13252SOL    HW141750   1.637   4.348   4.826 -0.3407  0.5791 -0.2078
13252SOL    HW241751   1.498   4.346   4.886  0.4207 -0.3369  1.5940
13253SOL     OW41752   5.549   4.308   1.875 -0.6251 -0.3143 -0.8820
13253SOL    HW141753   5.639   4.275   1.885 -0.7497 -0.3439  0.3173
13253SOL    HW241754   5.557   4.381   1.814  0.5038  0.7213  0.4337
13254SOL     OW41755   8.217   1.687   1.277 -0.4805  0.3273 -0.3897
13254SOL    HW141756   8.173   1.667   1.359  0.0458 -1.0096 -0.4181
13254SOL    HW241757   8.150   1.674   1.210 -0.4777 -0.1408 -0.3027
13255SOL     OW41758   1.460   1.254   1.485 -0.1249  0.0652  0.1280
13255SOL    HW141759   1.538   1.280   1.534  1.0426 -1.2442 -0.9708
13255SOL    HW241760   1.490   1.184   1.427 -1.9649  0.0139 -0.8280
13256SOL     OW41761   1.841   2.476   1.601  0.1860 -0.1614  0.4341
13256SOL    HW141762   1.849   2.571   1.602 -0.7927 -0.0639  0.8878
13256SOL    HW241763   1.928   2.444   1.580  0.3394  0.8594 -0.5668
13257SOL     OW41764   5.384   7.432   7.877  0.0312 -0.1671  0.2576
13257SOL    HW141765   5.358   7.436   7.969 -0.2002  0.2912  0.1793
13257SOL    HW241766   5.374   7.522   7.845 -0.2974 -0.3991 -0.3243
13258SOL     OW41767   5.203   1.790   0.327  0.2700  0.3732  0.0112
13258SOL    HW141768   5.244   1.703   0.336 -0.3497  0.0696 -0.0683
13258SOL    HW241769   5.114   1.772   0.298 -1.2533  0.7503  3.7687
13259SOL     OW41770   7.534   7.925   4.240  0.2071  0.2489  0.2767
13259SOL    HW141771   7.537   8.008   4.193  0.8847  0.0086 -0.1036
13259SOL    HW241772   7.535   7.950   4.333 -1.1173  0.7154  0.1848
13260SOL     OW41773   0.678   6.590   3.291  0.4721  0.6417 -0.4265
13260SOL    HW141774   0.654   6.681   3.276  1.3834  0.9990  0.2276
13260SOL    HW241775   0.600   6.551   3.332  0.0692  1.1102 -0.7433
13261SOL     OW41776   1.325   0.931   0.962  0.1271  0.3848  0.6098
13261SOL    HW141777   1.261   0.996   0.934 -1.4104 -0.9653  0.8570
13261SOL    HW241778   1.351   0.887   0.881 -0.9819 -0.5657  0.7528
13262SOL     OW41779   2.521   0.794   0.961 -0.6866  0.3806 -0.2164
13262SOL    HW141780   2.580   0.787   0.886 -1.3705  0.0220 -0.7278
13262SOL    HW241781   2.464   0.868   0.940 -1.3245 -0.1481 -0.3723
13263SOL     OW41782   8.752   8.185   2.530  0.2860 -0.1804 -0.0599
13263SOL    HW141783   8.838   8.218   2.555  0.0404  0.1951  0.3040
13263SOL    HW241784   8.770   8.118   2.465  1.0284 -1.8495  1.7667
13264SOL     OW41785   7.664   3.943   1.213  0.1353  0.2878  0.2507
13264SOL    HW141786   7.709   3.884   1.273 -2.8081 -0.1614  2.2050
13264SOL    HW241787   7.728   3.960   1.144  2.9526 -0.8847  2.3772
13265SOL     OW41788   2.410   5.381   6.929 -0.4806 -0.0778  0.2114
13265SOL    HW141789   2.495   5.395   6.970 -1.1969 -1.3855  2.3178
13265SOL    HW241790   2.369   5.467   6.929  0.1025  0.2069  0.9436
13266SOL     OW41791   6.814   4.396   2.009 -0.0226  0.2243 -0.1261
13266SOL    HW141792   6.866   4.422   2.085  2.0054  1.7868 -1.9140
13266SOL    HW241793   6.845   4.308   1.988  0.8171  0.5342 -0.2443
13267SOL     OW41794   7.849   5.240   4.900 -0.1680  0.1699  0.5035
13267SOL    HW141795   7.786   5.171   4.878  0.0002 -0.1250  0.9291
13267SOL    HW241796   7.931   5.193   4.913  0.5400  0.7209 -1.6360
13268SOL     OW41797   8.228   8.025   3.691 -0.2738 -0.2527 -0.4268
13268SOL    HW141798   8.165   7.956   3.713  0.4909 -0.7014  0.4068
13268SOL    HW241799   8.301   8.011   3.751 -0.3512  1.6622  0.1700
13269SOL     OW41800   3.574   5.728   3.172 -0.6875  0.2192  0.2059
13269SOL    HW141801   3.490   5.686   3.152 -0.4084 -0.6790  0.8337
13269SOL    HW241802   3.638   5.677   3.122 -0.3715  0.0431  0.7846
13270SOL     OW41803   3.194   6.628   8.601  0.1861 -0.3631  0.5679
13270SOL    HW141804   3.277   6.676   8.599  0.9284 -1.6200 -0.6592
13270SOL    HW241805   3.215   6.546   8.645 -0.1505 -1.1103 -0.6296
13271SOL     OW41806   0.303   7.404   7.774  0.5243 -0.7027 -0.3320
13271SOL    HW141807   0.373   7.450   7.728  1.8491 -1.4217  0.9022
13271SOL    HW241808   0.280   7.462   7.847 -0.3682 -0.3661 -0.8522
13272SOL     OW41809   8.692   8.096   5.623  0.0154 -0.1716 -0.3407
13272SOL    HW141810   8.784   8.118   5.638 -0.2242  0.2225  0.6277
13272SOL    HW241811   8.656   8.173   5.578 -0.3705  0.6715  1.3450
13273SOL     OW41812   8.040   0.024   0.535  0.0587  0.0864 -0.4432
13273SOL    HW141813   8.092  -0.021   0.602 -2.0541 -1.2870  0.3620
13273SOL    HW241814   8.074  -0.008   0.452 -0.7495 -2.3979  0.0923
13274SOL     OW41815   7.975   3.623   6.964  0.3061  0.0163  0.5407
13274SOL    HW141816   8.016   3.683   6.902 -0.8054  0.1012 -0.1388
13274SOL    HW241817   7.990   3.662   7.050  0.1606  0.9389  0.1571
13275SOL     OW41818   1.432   3.463   3.626  0.2088  0.0837 -0.0120
13275SOL    HW141819   1.486   3.396   3.586 -0.9195  0.2935 -2.0289
13275SOL    HW241820   1.347   3.422   3.639 -0.0543  0.6672  0.1795
13276SOL     OW41821   2.459   0.755   4.626  0.0458  0.6360 -0.1105
13276SOL    HW141822   2.540   0.774   4.578  0.9436 -2.6815 -0.1202
13276SOL    HW241823   2.485   0.755   4.718  0.3542 -1.3450 -0.1590
13277SOL     OW41824   0.169   1.316   1.048  0.1808  0.7462  0.5418
13277SOL    HW141825   0.215   1.374   0.988 -1.7216  0.2926 -1.4919
13277SOL    HW241826   0.111   1.374   1.097  0.4333  0.9106  0.6463
13278SOL     OW41827   5.171   2.975   6.398  0.8374  0.1149 -0.1917
13278SOL    HW141828   5.149   2.904   6.338  2.3608 -0.0715 -0.5902
13278SOL    HW241829   5.160   2.937   6.485 -0.3135  0.0365 -0.3640
13279SOL     OW41830   1.965   7.605   5.355  0.0727  0.2775 -0.2488
13279SOL    HW141831   1.913   7.683   5.377  0.8883  1.1249 -1.1996
13279SOL    HW241832   2.056   7.632   5.369  0.3309 -0.9184  0.5815
13280SOL     OW41833   3.224   3.884   5.039 -0.4204 -0.4101  0.7768
13280SOL    HW141834   3.266   3.966   5.015 -0.9496 -0.0186  1.1542
13280SOL    HW241835   3.130   3.904   5.038 -0.5537 -1.0029  0.8909
13281SOL     OW41836   3.125   2.365   3.492  0.0226  0.6425 -0.3077
13281SOL    HW141837   3.171   2.339   3.572 -0.8563  1.1560  0.3871
13281SOL    HW241838   3.177   2.328   3.421  0.1557 -0.8784  0.5468
13282SOL     OW41839   8.764   7.744   7.539 -0.1045 -0.3966 -0.2645
13282SOL    HW141840   8.827   7.743   7.467 -0.2522 -1.6264 -0.4094
13282SOL    HW241841   8.686   7.787   7.502  0.7599  1.4877  0.0420
13283SOL     OW41842   6.088   4.913   5.518 -0.1917 -0.8601 -0.2328
13283SOL    HW141843   6.080   4.962   5.437  0.4268  1.8091  1.2101
13283SOL    HW241844   6.092   4.821   5.490 -0.5364 -0.0971 -3.1318
13284SOL     OW41845   5.656   2.844   0.131 -0.2685 -0.0004 -0.0985
13284SOL    HW141846   5.572   2.798   0.136  0.5002 -1.3868  0.3923
13284SOL    HW241847   5.678   2.842   0.037 -0.3439 -0.4384 -0.1085
13285SOL     OW41848   3.352   3.397   7.283 -1.0091  0.2515  0.0713
13285SOL    HW141849   3.377   3.435   7.199 -0.0965 -0.8600 -0.1789
13285SOL    HW241850   3.297   3.464   7.324 -0.2273  1.4368 -0.7501
13286SOL     OW41851   0.884   2.538   7.420  0.0938 -0.6676 -0.4471
13286SOL    HW141852   0.914   2.451   7.396  0.0548 -0.5535 -0.9153
13286SOL    HW241853   0.881   2.537   7.516  2.5583 -0.3811 -0.3030
13287SOL     OW41854   5.701   5.676   4.700 -0.0019  0.7263 -0.2675
13287SOL    HW141855   5.661   5.607   4.646  0.5846 -0.0492  0.2562
13287SOL    HW241856   5.708   5.751   4.641 -0.9688  0.4486 -0.7537
13288SOL     OW41857   7.130   8.457   6.919  0.6665  0.4531 -0.2118
13288SOL    HW141858   7.072   8.434   6.847 -0.1125  1.8232 -0.0552
13288SOL    HW241859   7.077   8.515   6.974  1.3748 -0.2557  1.2603
13289SOL     OW41860   2.218   3.533   7.572  0.2264 -0.3480  0.6059
13289SOL    HW141861   2.124   3.540   7.586  0.1420 -0.7538  0.2858
13289SOL    HW241862   2.257   3.541   7.659 -0.1854 -1.4428  0.9073
13290SOL     OW41863   4.563   3.012   3.645  0.0093 -0.1827  0.3257
13290SOL    HW141864   4.547   2.997   3.551 -0.0393 -0.4454  0.3738
13290SOL    HW241865   4.648   3.055   3.649  0.1228 -0.3875  0.1725
13291SOL     OW41866   3.471   5.456   3.352  0.3964  0.0058 -0.4345
13291SOL    HW141867   3.510   5.410   3.426  0.7619  0.7108 -0.1726
13291SOL    HW241868   3.466   5.391   3.282  0.4795 -0.5408  0.0682
13292SOL     OW41869   8.612   5.312   3.494 -0.1121 -0.4712  0.2322
13292SOL    HW141870   8.550   5.337   3.426  1.2389 -0.1455 -0.9354
13292SOL    HW241871   8.697   5.311   3.450  0.9149  0.4158  2.0679
13293SOL     OW41872   4.653   3.974   4.658 -0.6516  0.2119 -0.0305
13293SOL    HW141873   4.679   4.065   4.643 -2.2935  1.1237  2.1163
13293SOL    HW241874   4.722   3.922   4.617  0.5680  2.4213 -0.9347
13294SOL     OW41875   7.551   6.013   8.401 -0.4711 -0.1344  0.0390
13294SOL    HW141876   7.582   5.972   8.320 -1.0718  2.1758 -1.4461
13294SOL    HW241877   7.480   5.957   8.430 -0.0059 -1.2137 -0.8142
13295SOL     OW41878   0.970   2.589   8.142  1.1378  0.2612  0.1908
13295SOL    HW141879   0.948   2.682   8.151  2.0151  0.3784  1.4223
13295SOL    HW241880   0.892   2.549   8.105  0.6358  1.4364 -0.0682
13296SOL     OW41881   2.437   0.137   6.527 -0.5889  0.2188  0.6974
13296SOL    HW141882   2.410   0.229   6.521 -0.9650  0.0713  0.0483
13296SOL    HW241883   2.409   0.109   6.615  2.9638  1.7898  2.5412
13297SOL     OW41884   4.421   2.323   0.248  1.0057 -0.3920  1.0960
13297SOL    HW141885   4.472   2.289   0.174  1.2654 -0.6378  1.3839
13297SOL    HW241886   4.390   2.245   0.293  0.7505 -0.2399  1.1802
13298SOL     OW41887   2.572   3.350   7.395 -0.9064  0.5777 -0.8009
13298SOL    HW141888   2.613   3.331   7.310 -0.7907  0.9196 -0.8243
13298SOL    HW241889   2.480   3.323   7.384 -0.1655 -2.8275  0.1282
13299SOL     OW41890   6.322   8.678   1.311 -0.2795 -0.5847 -0.0132
13299SOL    HW141891   6.399   8.674   1.254 -0.0819 -0.3118  0.2286
13299SOL    HW241892   6.357   8.706   1.396 -0.6829 -0.1691  0.0215
13300SOL     OW41893   3.353   2.057   3.844  0.0493 -0.0807  0.3701
13300SOL    HW141894   3.432   2.065   3.897  1.1063  0.5103 -1.2352
13300SOL    HW241895   3.291   2.011   3.901  0.9686  0.9092  2.2599
13301SOL     OW41896   0.190   0.801   6.341 -0.1572 -0.2333 -0.2346
13301SOL    HW141897   0.231   0.741   6.279  1.5900 -0.4227  1.0109
13301SOL    HW241898   0.262   0.829   6.398 -1.4300  0.9842  0.8495
13302SOL     OW41899   4.186   6.171   3.685 -0.2453  0.6512  0.5257
13302SOL    HW141900   4.133   6.099   3.653 -1.7264  2.4637 -1.4219
13302SOL    HW241901   4.180   6.166   3.780 -2.0383 -0.5443  0.3813
13303SOL     OW41902   7.825   2.396   8.416 -0.1857  0.1371 -0.2773
13303SOL    HW141903   7.770   2.475   8.418  0.6650  0.7464 -0.2123
13303SOL    HW241904   7.910   2.427   8.384 -0.0588 -0.9040 -1.0016
13304SOL     OW41905   1.307   1.271   7.343  0.2585 -0.0919  0.0872
13304SOL    HW141906   1.354   1.317   7.412  0.3293 -0.5616  0.3543
13304SOL    HW241907   1.239   1.222   7.388  0.9338 -1.1901 -0.0567
13305SOL     OW41908   3.178   1.491   7.840 -0.2077  0.0294  0.3152
13305SOL    HW141909   3.174   1.447   7.755 -0.8618 -0.3475  0.5282
13305SOL    HW241910   3.089   1.481   7.875  0.0227  0.3032  0.9814
13306SOL     OW41911   0.387   6.717   2.147  0.2587  0.4415 -0.2519
13306SOL    HW141912   0.421   6.750   2.064 -0.1246 -0.5243 -0.8077
13306SOL    HW241913   0.348   6.794   2.189 -0.3500  0.7732 -1.3756
13307SOL     OW41914   8.504   1.156   3.977  0.0813  0.1109  1.3262
13307SOL    HW141915   8.464   1.111   3.903  2.4957  0.0658 -0.0223
13307SOL    HW241916   8.456   1.239   3.983 -0.5992 -0.1846  0.1662
13308SOL     OW41917   7.561   3.778   5.532  0.2033  0.1881  0.1314
13308SOL    HW141918   7.604   3.716   5.591  0.3276 -0.1403 -0.2970
13308SOL    HW241919   7.476   3.796   5.573 -1.1522 -2.5844 -1.1681
13309SOL     OW41920   6.455   6.596   5.918  0.1169  0.3278  0.6303
13309SOL    HW141921   6.440   6.575   6.010 -0.3846 -2.1700  0.0475
13309SOL    HW241922   6.372   6.574   5.875  0.7291  0.3090 -0.5723
13310SOL     OW41923   1.298   2.525   7.986  0.5365  0.2890 -0.0478
13310SOL    HW141924   1.334   2.590   7.924  2.6659 -1.3907 -0.6953
13310SOL    HW241925   1.205   2.521   7.964  0.8342  1.2451 -1.7463
13311SOL     OW41926   1.424   6.458   4.822  0.4274  0.0856  0.2818
13311SOL    HW141927   1.435   6.440   4.915  2.1522 -0.4082  0.0155
13311SOL    HW241928   1.471   6.539   4.807 -1.4310  1.1928  0.1490
13312SOL     OW41929   2.429   3.761   2.092  0.1798  0.5261 -0.0592
13312SOL    HW141930   2.442   3.801   2.178  0.3875 -0.7639  0.5267
13312SOL    HW241931   2.473   3.677   2.097 -0.6250  0.0105 -1.1119
13313SOL     OW41932   8.189   3.371   4.644  0.4094 -0.1460 -0.5224
13313SOL    HW141933   8.255   3.363   4.713  0.0751 -1.0736 -0.2868
13313SOL    HW241934   8.110   3.331   4.682 -0.7724  2.3107 -0.2272
13314SOL     OW41935   2.054   2.099   8.841  0.1556  0.1687  1.2008
13314SOL    HW141936   1.962   2.076   8.855 -0.1044 -0.0959 -0.6772
13314SOL    HW241937   2.101   2.017   8.850 -0.0205 -0.0203  0.4393
13315SOL     OW41938   2.019   8.576   8.294  0.2552 -0.0351  0.5553
13315SOL    HW141939   1.974   8.651   8.256  0.6582 -0.4144 -0.7060
13315SOL    HW241940   2.054   8.609   8.377 -1.4549  0.5331  1.0894
13316SOL     OW41941   5.825   7.788   0.708 -0.5562  0.4255 -0.7417
13316SOL    HW141942   5.890   7.836   0.760 -0.3134  0.7435 -1.3298
13316SOL    HW241943   5.858   7.698   0.705 -0.2675  0.5319 -0.8268
13317SOL     OW41944   5.800   5.210   4.740  0.1080 -0.2022  0.4181
13317SOL    HW141945   5.815   5.121   4.771  0.9693  0.2585  1.3844
13317SOL    HW241946   5.738   5.247   4.803 -0.8476 -0.3430 -0.4157
13318SOL     OW41947   1.151   3.547   1.775 -0.4133  0.2296 -0.2462
13318SOL    HW141948   1.063   3.571   1.747  0.6200  2.5443 -1.8607
13318SOL    HW241949   1.209   3.585   1.709  1.8429 -0.9521  0.9065
13319SOL     OW41950   5.976   1.706   8.851  0.1242  0.3516 -0.0591
13319SOL    HW141951   5.896   1.687   8.898  0.2774  1.0635  0.5120
13319SOL    HW241952   5.956   1.785   8.799 -0.1514 -0.6137 -1.4771
13320SOL     OW41953   2.058   4.665   3.647  0.5651 -0.0275 -0.2643
13320SOL    HW141954   2.047   4.670   3.552 -0.9312  0.9986 -0.0761
13320SOL    HW241955   2.144   4.624   3.659  0.4280 -0.9600 -2.0388
13321SOL     OW41956   5.631   6.366   7.350 -0.2038 -0.1521 -0.2660
13321SOL    HW141957   5.692   6.302   7.385 -0.1610  0.1294  0.1851
13321SOL    HW241958   5.547   6.345   7.392  0.3439  1.7124  2.0418
13322SOL     OW41959   8.041   5.820   2.152 -0.1959  0.6957  0.6225
13322SOL    HW141960   8.082   5.770   2.223  0.6952  1.2464  0.5052
13322SOL    HW241961   7.947   5.812   2.169 -0.1167 -1.3342  0.4021
13323SOL     OW41962   3.603   6.367   6.461  0.6072  0.2445 -0.5697
13323SOL    HW141963   3.583   6.276   6.440 -0.9221  0.6566 -1.0462
13323SOL    HW241964   3.531   6.394   6.519  2.2168  0.5252  1.4234
13324SOL     OW41965   4.260   7.720   5.656 -0.7007  0.1415 -0.4803
13324SOL    HW141966   4.276   7.638   5.609 -1.9829 -1.0924  1.0978
13324SOL    HW241967   4.322   7.782   5.618  0.5258 -1.6283 -1.5419
13325SOL     OW41968   4.858   8.755   2.456  0.8076  0.3746  0.3948
13325SOL    HW141969   4.832   8.675   2.501  0.4975 -1.2815 -2.5421
13325SOL    HW241970   4.777   8.805   2.447 -0.0111 -1.2513 -1.9649
13326SOL     OW41971   8.773   3.009   4.665  0.5799 -0.3400  0.5230
13326SOL    HW141972   8.695   2.958   4.643  0.7184 -0.0067 -0.7854
13326SOL    HW241973   8.828   2.948   4.715  0.8510 -1.5659 -1.2079
13327SOL     OW41974   0.149   5.343   0.622  0.2960 -1.0276 -0.2177
13327SOL    HW141975   0.086   5.411   0.643 -0.2753 -1.9567  1.2745
13327SOL    HW241976   0.200   5.378   0.549 -0.2384  0.8073  0.2520
13328SOL     OW41977   1.602   4.190   3.152 -0.3467 -0.1828  0.1332
13328SOL    HW141978   1.638   4.276   3.129 -0.0870 -0.4360 -0.4270
13328SOL    HW241979   1.671   4.147   3.201 -0.8738  0.3282  1.3600
13329SOL     OW41980   2.549   8.750   4.618 -0.1109  0.5249 -0.1930
13329SOL    HW141981   2.472   8.806   4.626  1.0479  2.6156 -2.4064
13329SOL    HW241982   2.519   8.673   4.569 -1.4648 -0.3684  1.8889
13330SOL     OW41983   7.956   6.901   5.738  0.0978 -0.6045  0.4149
13330SOL    HW141984   8.007   6.965   5.687  0.8286 -2.5977 -1.4823
13330SOL    HW241985   7.891   6.954   5.783  0.9849  1.5489 -0.6562
13331SOL     OW41986   4.967   8.240   3.336 -0.4071 -0.7337 -0.2347
13331SOL    HW141987   4.929   8.209   3.418  1.6064 -0.1635  0.9882
13331SOL    HW241988   4.956   8.167   3.275 -1.3572 -1.4253  0.7317
13332SOL     OW41989   7.249   6.125   4.903 -0.0046  0.0230  0.8172
13332SOL    HW141990   7.274   6.034   4.920 -0.8993 -0.3503  0.2386
13332SOL    HW241991   7.180   6.119   4.837  0.4433  1.1732  0.2088
13333SOL     OW41992   3.368   6.943   3.964  0.2056  0.3293  0.2266
13333SOL    HW141993   3.362   7.029   4.004 -0.6087  0.2824  0.2232
13333SOL    HW241994   3.450   6.944   3.916  1.2423  0.3627  1.9410
13334SOL     OW41995   1.205   8.194   2.720 -0.5945 -0.3935  0.2953
13334SOL    HW141996   1.292   8.171   2.686 -0.6308 -1.2370  0.7258
13334SOL    HW241997   1.146   8.181   2.646 -0.3492  0.2558 -0.0210
13335SOL     OW41998   3.454   4.889   8.090  0.7860  0.3894 -0.0904
13335SOL    HW141999   3.407   4.966   8.123  1.8700  0.6642  0.8425
13335SOL    HW242000   3.541   4.922   8.067  0.6924 -0.2110 -1.3885
13336SOL     OW42001   5.477   7.649   2.598  0.2455 -0.3924 -0.6959
13336SOL    HW142002   5.405   7.659   2.535 -0.3700 -0.7432 -0.0528
13336SOL    HW242003   5.516   7.736   2.604 -0.5453 -0.0452 -0.5491
13337SOL     OW42004   7.056   2.226   7.387  0.2550 -0.0512  0.1038
13337SOL    HW142005   7.141   2.263   7.360  0.4303 -1.3371 -1.2210
13337SOL    HW242006   7.001   2.303   7.402  0.8138  0.8047 -1.8518
13338SOL     OW42007   3.060   4.424   1.166 -0.1213  0.2729  0.2842
13338SOL    HW142008   3.122   4.374   1.220 -0.1521 -0.0837 -0.0001
13338SOL    HW242009   3.101   4.509   1.155 -0.2949  0.4818  1.1852
13339SOL     OW42010   2.648   2.031   0.398 -0.0397 -0.2729  0.0109
13339SOL    HW142011   2.674   1.944   0.425  0.0326  0.5486  2.8647
13339SOL    HW242012   2.579   2.056   0.459  1.2648  2.3660  0.5705
13340SOL     OW42013   6.051   6.592   4.316 -0.0869 -0.0945  0.3037
13340SOL    HW142014   6.123   6.538   4.284  0.3728  0.5351  0.2422
13340SOL    HW242015   6.093   6.654   4.376 -0.4930  0.5933 -0.1076
13341SOL     OW42016   5.399   2.951   6.750 -0.5790 -0.0630  0.2850
13341SOL    HW142017   5.394   2.933   6.844 -1.5795  0.7515  0.4104
13341SOL    HW242018   5.479   2.908   6.721  0.6243  1.0127  1.8272
13342SOL     OW42019   4.152   7.297   6.988 -0.1805 -0.1737  0.5341
13342SOL    HW142020   4.072   7.255   7.020 -0.6657  1.5896  1.7656
13342SOL    HW242021   4.137   7.310   6.894 -1.2459 -0.0404  0.7173
13343SOL     OW42022   3.117   8.684   7.379  0.0439  0.5581  0.3451
13343SOL    HW142023   3.095   8.774   7.403 -3.0985 -0.0651  0.1819
13343SOL    HW242024   3.041   8.633   7.406  0.7581 -1.7258 -1.6422
13344SOL     OW42025   2.544   8.232   1.194 -0.5941 -0.4449 -0.4347
13344SOL    HW142026   2.526   8.288   1.270 -0.7215 -0.4806 -0.4378
13344SOL    HW242027   2.585   8.290   1.130 -0.8717 -0.3169 -0.4993
13345SOL     OW42028   1.293   5.008   2.298  0.0624 -0.2848  0.8271
13345SOL    HW142029   1.277   4.929   2.349  0.8419 -1.7996 -1.1432
13345SOL    HW242030   1.385   5.003   2.272 -0.4270  0.0879 -1.1626
13346SOL     OW42031   4.384   5.862   6.006 -0.0862  0.1756 -0.3162
13346SOL    HW142032   4.288   5.858   6.004 -0.0986  0.6297 -0.8148
13346SOL    HW242033   4.404   5.954   5.996  0.3983  0.1631  0.4520
13347SOL     OW42034   3.385   3.103   6.096 -0.0467 -0.4459  0.1915
13347SOL    HW142035   3.462   3.152   6.068 -0.6343  0.3753 -0.0253
13347SOL    HW242036   3.344   3.158   6.163 -1.6176  0.1846 -1.2027
13348SOL     OW42037   8.534   7.801   4.228  0.1716 -0.5367 -0.5931
13348SOL    HW142038   8.601   7.799   4.296 -1.2609 -3.0040  0.9078
13348SOL    HW242039   8.468   7.862   4.260 -0.5107 -1.7111  0.3493
13349SOL     OW42040   1.662   2.146   8.456 -0.0916  0.6740  0.2100
13349SOL    HW142041   1.735   2.178   8.509 -0.2784  0.1754  0.7841
13349SOL    HW242042   1.629   2.070   8.505  0.1281 -0.1839 -0.9234
13350SOL     OW42043   3.851   8.707   8.174  0.6625 -0.6878  0.2298
13350SOL    HW142044   3.830   8.765   8.247 -0.0352 -1.2510  0.4840
13350SOL    HW242045   3.830   8.759   8.096 -1.4905 -1.1006  0.4589
13351SOL     OW42046   7.962   2.005   6.743 -0.4524  0.2191  0.2779
13351SOL    HW142047   8.021   2.078   6.758 -0.4798  0.0112  1.5438
13351SOL    HW242048   7.888   2.042   6.694 -1.2033  1.4027  2.2116
13352SOL     OW42049   1.246   0.989   8.083 -0.4762  0.3826  0.2917
13352SOL    HW142050   1.232   1.034   8.166 -0.6881 -0.8030  0.9262
13352SOL    HW242051   1.291   0.908   8.108  0.7381  0.6555 -0.9052
13353SOL     OW42052   3.064   2.313   1.302  0.4200  0.0065 -0.3057
13353SOL    HW142053   3.157   2.336   1.300  0.5631 -0.5829 -0.5558
13353SOL    HW242054   3.040   2.318   1.394  0.7583 -0.0629 -0.2125
13354SOL     OW42055   5.364   5.201   8.023  0.0389  0.6755  0.0321
13354SOL    HW142056   5.389   5.294   8.026 -1.0197  1.0426 -1.4972
13354SOL    HW242057   5.323   5.190   7.938 -3.7031 -0.1760  1.7391
13355SOL     OW42058   6.043   6.651   8.848 -0.4537  0.7729 -0.2818
13355SOL    HW142059   6.003   6.582   8.900 -0.9008  1.7863  0.7692
13355SOL    HW242060   5.995   6.730   8.872  0.3639  1.5406 -1.0848
13356SOL     OW42061   1.988   6.797   5.028  0.5939 -0.4125  0.2015
13356SOL    HW142062   2.021   6.745   5.101  0.9894  0.6655  0.8078
13356SOL    HW242063   1.905   6.832   5.060 -0.1175 -1.3628 -0.5320
13357SOL     OW42064   1.301   2.567   5.874  0.0183  0.3220  0.0875
13357SOL    HW142065   1.253   2.508   5.816  0.1832 -1.8021  1.9839
13357SOL    HW242066   1.385   2.524   5.887 -0.0417  0.6975  1.9416
13358SOL     OW42067   7.022   0.981   1.120  0.1393  0.0122 -0.1203
13358SOL    HW142068   7.066   0.917   1.064  1.0055  1.1881 -0.8131
13358SOL    HW242069   7.043   0.954   1.209  1.2920 -0.1280 -0.4255
13359SOL     OW42070   0.885   1.760   8.390  0.5817 -0.8260 -0.0101
13359SOL    HW142071   0.854   1.678   8.431  2.2682 -1.3439  0.2944
13359SOL    HW242072   0.880   1.824   8.461 -0.3707 -0.7426 -0.1380
13360SOL     OW42073   3.107   4.035   4.436  1.3384  0.0935 -0.1487
13360SOL    HW142074   3.024   4.042   4.388  1.0893 -1.9421 -0.1334
13360SOL    HW242075   3.169   4.087   4.385  0.3648  0.5217 -0.9346
13361SOL     OW42076   3.912   6.291   7.527  0.0747 -0.0760 -0.5099
13361SOL    HW142077   3.990   6.279   7.473  0.5035 -1.8221  0.3949
13361SOL    HW242078   3.872   6.372   7.496  1.0135 -0.3429 -2.5214
13362SOL     OW42079   6.080   7.782   4.246 -0.1504  0.4931  0.0579
13362SOL    HW142080   6.158   7.813   4.199  0.4102 -0.6130  0.2337
13362SOL    HW242081   6.010   7.788   4.181  0.4554 -0.2177 -0.6913
13363SOL     OW42082   1.704   0.569   0.517 -0.1295 -0.3206 -0.6798
13363SOL    HW142083   1.747   0.609   0.592 -0.2236 -2.1449  0.4079
13363SOL    HW242084   1.775   0.554   0.454  0.2192 -0.1910 -0.3204
13364SOL     OW42085   3.360   8.692   4.744  0.3568 -0.1884 -0.0994
13364SOL    HW142086   3.376   8.777   4.702  1.4149 -0.7695 -0.9232
13364SOL    HW242087   3.301   8.647   4.684  3.1532 -1.6712 -1.9875
13365SOL     OW42088   4.169   0.783   8.417 -0.6179  0.2488 -0.1881
13365SOL    HW142089   4.209   0.827   8.492  0.5682 -1.6078  0.3610
13365SOL    HW242090   4.107   0.722   8.457 -2.3052  1.4261 -0.9258
13366SOL     OW42091   0.055   2.047   5.621 -0.4898  0.2145  0.3037
13366SOL    HW142092   0.018   2.099   5.692  1.4565 -0.3316  1.7855
13366SOL    HW242093   0.006   1.965   5.623 -0.9180  0.4713  0.5286
13367SOL     OW42094   5.449   6.226   2.583 -0.3989  0.3285 -0.1617
13367SOL    HW142095   5.424   6.317   2.566  0.1847  0.2599 -1.5549
13367SOL    HW242096   5.418   6.209   2.672 -1.7337  1.4575 -0.3669
13368SOL     OW42097   8.548   3.515   3.335 -0.0981  0.1533 -0.0358
13368SOL    HW142098   8.543   3.525   3.430 -0.6665  0.7575 -0.1241
13368SOL    HW242099   8.577   3.600   3.303 -2.4110  0.8023 -0.5990
13369SOL     OW42100   7.284   8.633   4.892 -0.1422 -0.2996  0.2129
13369SOL    HW142101   7.331   8.692   4.833 -0.2168 -0.8174 -0.3660
13369SOL    HW242102   7.353   8.589   4.942 -0.0502 -0.4023 -0.0056
13370SOL     OW42103   5.332   5.749   6.465 -0.0424  0.3717  0.1274
13370SOL    HW142104   5.328   5.764   6.370  1.4249  0.6902  0.0895
13370SOL    HW242105   5.280   5.820   6.503 -0.5156  0.3299 -0.4297
13371SOL     OW42106   3.261   1.348   8.059 -0.0153 -0.4276 -0.3046
13371SOL    HW142107   3.329   1.281   8.046  0.0126 -0.8174  1.5436
13371SOL    HW242108   3.227   1.365   7.972 -0.4184 -3.2985 -0.8066
13372SOL     OW42109   3.711   3.729   7.105 -0.0305  0.3092  0.4873
13372SOL    HW142110   3.661   3.804   7.075 -0.6139 -0.1787  0.2264
13372SOL    HW242111   3.772   3.710   7.033  1.5235  1.7514  1.3516
13373SOL     OW42112   6.290   1.413   1.889 -0.6181 -0.2910  0.3049
13373SOL    HW142113   6.366   1.465   1.917 -0.8489 -0.2934  0.9733
13373SOL    HW242114   6.294   1.335   1.944 -0.6423 -0.6775 -0.2401
13374SOL     OW42115   3.459   6.722   6.386  0.4927 -0.2855 -0.4248
13374SOL    HW142116   3.511   6.685   6.315 -2.0688  0.2959 -2.7984
13374SOL    HW242117   3.430   6.646   6.437  1.4430 -0.8196 -0.6651
13375SOL     OW42118   5.814   7.721   8.186 -0.2521 -0.3824 -0.5247
13375SOL    HW142119   5.804   7.664   8.110  0.1432  1.2197 -1.8160
13375SOL    HW242120   5.739   7.699   8.242 -1.4801 -0.4635 -2.1388
13376SOL     OW42121   4.447   8.112   7.162 -0.5823 -0.0171 -0.3778
13376SOL    HW142122   4.460   8.050   7.234 -1.0203  1.3685  0.9448
13376SOL    HW242123   4.535   8.137   7.135 -0.3597 -1.8919 -1.6043
13377SOL     OW42124   6.426   7.151   6.557 -0.0666  0.3731 -0.0939
13377SOL    HW142125   6.358   7.105   6.508 -1.0009  0.1847  1.3136
13377SOL    HW242126   6.439   7.233   6.510 -0.9102  0.1846 -0.6686
13378SOL     OW42127   7.571   1.954   8.450  0.5317  0.7648  0.2951
13378SOL    HW142128   7.497   1.962   8.510  1.1973  1.8598  1.0052
13378SOL    HW242129   7.593   2.045   8.426 -0.1339  0.3557 -2.1628
13379SOL     OW42130   6.505   7.755   1.615 -0.5265  0.1825 -0.0109
13379SOL    HW142131   6.471   7.731   1.529 -0.4410  1.1868 -0.3389
13379SOL    HW242132   6.568   7.686   1.636  1.2298  1.1378 -1.8340
13380SOL     OW42133   8.250   1.677   4.250  0.2690  0.4681  0.1573
13380SOL    HW142134   8.179   1.736   4.224 -1.0487 -1.0835  0.0521
13380SOL    HW242135   8.260   1.694   4.344  0.2367  1.1775  0.0420
13381SOL     OW42136   3.001   0.383   1.732 -0.2373 -0.1812  0.1487
13381SOL    HW142137   2.970   0.301   1.694  0.4547 -0.1119 -0.6009
13381SOL    HW242138   2.941   0.449   1.699 -0.4347 -0.3044  0.2604
13382SOL     OW42139   1.609   4.632   5.292  0.2629 -0.0592 -0.2231
13382SOL    HW142140   1.700   4.659   5.282  0.6351 -1.2910 -0.2603
13382SOL    HW242141   1.604   4.600   5.382  0.3086 -1.5736 -0.7331
13383SOL     OW42142   5.055   7.947   2.868 -0.6983  0.0346 -0.3501
13383SOL    HW142143   5.150   7.944   2.879 -0.7420 -0.5193 -0.0986
13383SOL    HW242144   5.036   7.875   2.808 -0.6972  1.7101 -2.5050
13384SOL     OW42145   4.775   8.272   6.340 -0.6532  0.4617 -0.2794
13384SOL    HW142146   4.686   8.239   6.324 -1.0891  1.1727  0.5406
13384SOL    HW242147   4.769   8.366   6.320  0.4074  0.1966 -2.0040
13385SOL     OW42148   3.320   1.745   3.047  0.7435 -0.3124  0.0599
13385SOL    HW142149   3.235   1.772   3.013  1.1439  1.1684  0.1965
13385SOL    HW242150   3.378   1.748   2.970  1.0245  0.2856  0.2895
13386SOL     OW42151   6.057   7.185   7.051  0.2203 -0.1277 -0.3627
13386SOL    HW142152   6.109   7.226   7.120  1.5076 -0.1969 -1.2696
13386SOL    HW242153   5.985   7.142   7.098 -0.7346  2.3934  0.7119
13387SOL     OW42154   6.528   5.258   4.284  0.1455  0.1494 -0.4021
13387SOL    HW142155   6.436   5.255   4.258  0.0657  0.7865 -0.2220
13387SOL    HW242156   6.542   5.176   4.332 -0.6708  0.5920  0.6497
13388SOL     OW42157   0.222   8.201   4.587  0.2704  0.2316  0.3815
13388SOL    HW142158   0.303   8.150   4.584 -0.1243 -0.4014 -2.7208
13388SOL    HW242159   0.171   8.169   4.513 -3.5400 -0.4132  2.9982
13389SOL     OW42160   5.854   1.495   7.262 -0.3394  0.1267 -0.2830
13389SOL    HW142161   5.874   1.567   7.203  0.7386 -0.3144 -0.4732
13389SOL    HW242162   5.883   1.417   7.215 -1.8304 -0.4893 -0.2423
13390SOL     OW42163   8.394   3.445   3.149  0.4214 -0.0186  0.1584
13390SOL    HW142164   8.404   3.353   3.124 -1.0737 -0.5564  1.4015
13390SOL    HW242165   8.446   3.454   3.228 -1.7274 -0.6103  1.7226
13391SOL     OW42166   3.726   6.786   3.962 -0.1063 -0.0210  0.3018
13391SOL    HW142167   3.780   6.782   4.041  0.5693 -0.7136 -0.1804
13391SOL    HW242168   3.643   6.824   3.991 -0.1386 -0.9695  1.5050
13392SOL     OW42169   0.482   1.199   2.245  0.4410 -0.3809  0.3105
13392SOL    HW142170   0.563   1.189   2.195  0.8729  0.2010  0.8743
13392SOL    HW242171   0.459   1.292   2.235  0.8795 -0.0959  1.6745
13393SOL     OW42172   3.033   4.900   8.081 -0.2729 -0.2162 -1.0513
13393SOL    HW142173   3.116   4.863   8.110 -0.8465 -1.0069 -0.3636
13393SOL    HW242174   2.967   4.839   8.114 -1.2573  1.3872  0.1003
13394SOL     OW42175   4.922   7.656   1.543  0.3618 -0.4038  0.1429
13394SOL    HW142176   4.916   7.583   1.481  2.1674  0.6144 -1.2892
13394SOL    HW242177   4.875   7.728   1.501 -0.1674 -0.2852  0.9075
13395SOL     OW42178   0.365   4.510   4.197  0.4603 -0.1722 -0.0756
13395SOL    HW142179   0.422   4.555   4.134  0.2075  0.0789 -0.1254
13395SOL    HW242180   0.304   4.461   4.143 -0.0912  0.4564 -0.0401
13396SOL     OW42181   6.731   7.574   6.391  0.4817  0.0391  0.1144
13396SOL    HW142182   6.705   7.550   6.303  0.7267  0.9139 -0.2079
13396SOL    HW242183   6.826   7.573   6.390  0.4872 -0.6974  0.5901
13397SOL     OW42184   8.277   3.084   0.603  0.2946  0.0027  0.5095
13397SOL    HW142185   8.277   3.113   0.694  0.4567  0.1210  0.4712
13397SOL    HW242186   8.212   3.139   0.560  0.3231  0.0446  0.5211
13398SOL     OW42187   0.585   1.357   8.646 -0.1154 -0.4053  0.2002
13398SOL    HW142188   0.551   1.276   8.682 -1.6341 -0.0773 -0.4439
13398SOL    HW242189   0.530   1.376   8.570  0.1477  1.2682  0.3809
13399SOL     OW42190   3.046   1.495   4.643  0.5409  0.4774 -0.0265
13399SOL    HW142191   3.131   1.461   4.671  0.2018  1.4321  2.3899
13399SOL    HW242192   2.983   1.430   4.673  0.3542  0.0577 -1.2925
13400SOL     OW42193   0.062   2.582   5.098 -0.7362 -0.1640  0.3950
13400SOL    HW142194   0.084   2.595   5.006 -0.1807  1.5553  0.7310
13400SOL    HW242195   0.136   2.532   5.133 -0.6873 -0.3530  0.0242
13401SOL     OW42196   4.448   1.735   7.642 -0.1258 -0.0317  0.1601
13401SOL    HW142197   4.475   1.749   7.551  1.8191 -1.0723  0.5019
13401SOL    HW242198   4.445   1.639   7.651 -1.9355  0.0481  0.7810
13402SOL     OW42199   8.881   5.158   5.778  0.3277  0.3056  0.3775
13402SOL    HW142200   8.974   5.137   5.780  0.3274  0.3280  0.6990
13402SOL    HW242201   8.846   5.121   5.859 -0.0166 -0.0268  0.0804
13403SOL     OW42202   1.370   1.875   5.638 -0.2595 -0.2989  0.0141
13403SOL    HW142203   1.295   1.896   5.582  0.2823 -0.2782 -0.7168
13403SOL    HW242204   1.347   1.912   5.723 -0.6700  0.5443 -0.4502
13404SOL     OW42205   2.705   2.992   2.492 -0.0409  0.2480 -0.5362
13404SOL    HW142206   2.761   3.052   2.442  1.8560 -0.6287  0.4305
13404SOL    HW242207   2.744   2.906   2.477 -1.7472 -0.5575 -0.5826
13405SOL     OW42208   1.702   4.541   7.372 -0.4707 -0.2441 -0.2404
13405SOL    HW142209   1.696   4.518   7.279  0.8442  0.1176 -0.4309
13405SOL    HW242210   1.714   4.636   7.373  1.2722 -0.4433  0.2043
13406SOL     OW42211   5.803   7.521   7.991 -0.1156  0.7849  0.0313
13406SOL    HW142212   5.800   7.456   7.920  0.4344  0.2005  0.5379
13406SOL    HW242213   5.780   7.473   8.070 -1.8831  1.6763  0.1145
13407SOL     OW42214   5.354   5.458   5.740 -0.3691 -0.2854  0.4087
13407SOL    HW142215   5.315   5.510   5.810 -0.0962  0.6615 -0.1349
13407SOL    HW242216   5.434   5.422   5.780 -0.8815 -0.8198  0.9788
13408SOL     OW42217   5.769   0.202   6.114 -0.1119  0.4334  0.1378
13408SOL    HW142218   5.711   0.150   6.169 -0.4210  0.2679 -0.3358
13408SOL    HW242219   5.850   0.150   6.110 -1.2189 -1.3005 -2.3129
13409SOL     OW42220   8.254   3.711   8.637 -0.8039  1.0220  0.3685
13409SOL    HW142221   8.312   3.787   8.648 -0.5018  0.5038  3.0201
13409SOL    HW242222   8.166   3.748   8.633 -0.6201  1.5852  1.1324
13410SOL     OW42223   4.683   0.044   4.296 -0.0600  0.1167 -0.0260
13410SOL    HW142224   4.761   0.097   4.283 -0.9938  2.0497  1.6903
13410SOL    HW242225   4.673   0.039   4.391 -1.3332 -1.1646 -0.1955
13411SOL     OW42226   0.466   3.901   7.077 -0.1477 -0.2332  0.1692
13411SOL    HW142227   0.470   3.988   7.038 -0.6490 -0.5081 -0.5247
13411SOL    HW242228   0.489   3.842   7.006 -1.4077 -0.7681  0.1718
13412SOL     OW42229   7.187   2.941   8.611  0.0032 -0.0541 -0.0359
13412SOL    HW142230   7.203   3.024   8.566 -0.8674  0.3452  0.3662
13412SOL    HW242231   7.130   2.892   8.551  0.5932 -0.4122 -0.3157
13413SOL     OW42232   6.785   3.607   4.236 -0.2562  0.3771  0.1308
13413SOL    HW142233   6.708   3.663   4.223 -0.2410  0.0978 -1.2986
13413SOL    HW242234   6.848   3.663   4.280 -0.9186  0.9102  0.4343
13414SOL     OW42235   0.913   4.477   6.612 -0.0222  0.0430 -0.2510
13414SOL    HW142236   0.870   4.500   6.695 -0.0935  1.2508 -0.6084
13414SOL    HW242237   0.848   4.423   6.566 -0.1517 -0.2719  0.2883
13415SOL     OW42238   2.299   0.033   7.125 -0.1853 -0.3809 -0.1533
13415SOL    HW142239   2.331  -0.043   7.173  0.4033 -2.1297 -3.0638
13415SOL    HW242240   2.378   0.083   7.104 -0.4300  0.3376  0.5759
13416SOL     OW42241   5.466   7.177   7.874  0.2398 -0.4028  0.4045
13416SOL    HW142242   5.425   7.261   7.895  1.3286  0.2745 -0.1071
13416SOL    HW242243   5.492   7.186   7.782 -0.4730 -1.6604  0.0593
13417SOL     OW42244   2.012   1.049   4.627  0.4732  0.1358 -0.7658
13417SOL    HW142245   2.029   1.142   4.644 -0.3646  0.0532  0.7289
13417SOL    HW242246   2.097   1.007   4.640 -0.0693  0.0021  4.4551
13418SOL     OW42247   3.628   8.556   2.326 -0.4554  0.1829 -0.1513
13418SOL    HW142248   3.649   8.564   2.419  0.6166 -2.6300 -0.0671
13418SOL    HW242249   3.665   8.635   2.287  1.0471  0.3714  1.5155
13419SOL     OW42250   3.410   1.034   3.031 -0.2523  0.0225 -0.1063
13419SOL    HW142251   3.324   0.991   3.034 -1.3066  2.0521  0.8505
13419SOL    HW242252   3.451   1.000   2.952 -1.9762 -0.9350 -0.6421
13420SOL     OW42253   0.240   8.743   8.448 -0.2869  0.0396 -0.5071
13420SOL    HW142254   0.214   8.705   8.364  0.7752 -0.8910 -0.4424
13420SOL    HW242255   0.177   8.813   8.463  0.0425  0.8270 -2.5036
13421SOL     OW42256   3.565   4.511   6.729 -0.3509  0.2408 -0.0366
13421SOL    HW142257   3.579   4.451   6.655 -0.5696 -0.2052  0.2753
13421SOL    HW242258   3.485   4.478   6.771  0.1728  0.0447  0.8286
13422SOL     OW42259   0.159   6.346   6.400 -0.3389 -0.1040  0.0818
13422SOL    HW142260   0.224   6.408   6.368  0.8683 -1.6325 -0.5159
13422SOL    HW242261   0.174   6.342   6.495  0.3513 -0.3644 -0.0388
13423SOL     OW42262   2.326   6.347   6.825 -0.0066 -0.1884 -0.0237
13423SOL    HW142263   2.325   6.431   6.779  1.2486 -1.1416 -1.9354
13423SOL    HW242264   2.343   6.370   6.917  0.4862  1.6391 -0.5213
13424SOL     OW42265   2.129   7.748   5.751 -0.2388  0.0056  0.9095
13424SOL    HW142266   2.042   7.754   5.712 -0.5545 -2.2540  1.1508
13424SOL    HW242267   2.140   7.655   5.773  3.2944 -0.3683 -1.5970
13425SOL     OW42268   0.806   6.783   1.768  0.1226 -0.4880  0.3803
13425SOL    HW142269   0.823   6.875   1.747 -0.9483 -0.6951 -1.6996
13425SOL    HW242270   0.892   6.743   1.775  0.5998  0.6739  1.3470
13426SOL     OW42271   8.655   1.728   3.900 -0.3392 -0.4168  0.0912
13426SOL    HW142272   8.563   1.752   3.896 -0.2797 -0.1319  0.3776
13426SOL    HW242273   8.692   1.787   3.966  0.0222 -0.6079  0.0610
13427SOL     OW42274   3.439   4.358   2.088  0.1901  1.1692 -0.4770
13427SOL    HW142275   3.481   4.384   2.006 -1.4099 -0.6148 -1.9745
13427SOL    HW242276   3.490   4.282   2.117  0.4934  1.5401 -0.0184
13428SOL     OW42277   0.096   4.958   7.055  0.1011  0.1765 -0.1061
13428SOL    HW142278   0.044   5.029   7.016 -1.4214  0.2179  1.8695
13428SOL    HW242279   0.061   4.878   7.016 -0.3373  0.3058  0.0229
13429SOL     OW42280   1.530   3.096   6.078  0.3059  0.2476  0.0468
13429SOL    HW142281   1.529   3.192   6.077 -0.5459  0.3078  2.0976
13429SOL    HW242282   1.612   3.074   6.123  1.1950 -0.0732 -1.6296
13430SOL     OW42283   3.281   6.516   5.698  0.3054  0.2856 -0.2548
13430SOL    HW142284   3.287   6.555   5.611 -0.4953  2.5956  0.6283
13430SOL    HW242285   3.366   6.475   5.711  0.7162  0.5567 -1.8316
13431SOL     OW42286   4.535   7.133   3.321 -0.8227  0.2988 -0.4197
13431SOL    HW142287   4.584   7.068   3.272  0.0090 -0.0614  0.8301
13431SOL    HW242288   4.486   7.182   3.255  0.7575  0.2871 -1.6473
13432SOL     OW42289   2.568   1.434   5.433 -0.2101  0.0882 -0.2998
13432SOL    HW142290   2.596   1.399   5.348 -0.0353 -0.5690  0.0186
13432SOL    HW242291   2.639   1.492   5.460 -0.1413  0.0864 -0.4760
13433SOL     OW42292   7.609   6.193   7.122 -0.0656 -0.4082  0.4239
13433SOL    HW142293   7.639   6.226   7.207 -0.1243 -1.4435  0.8542
13433SOL    HW242294   7.620   6.268   7.063  0.3764  0.1969  1.2436
13434SOL     OW42295   6.414   0.444   0.777  0.5488 -0.0287  0.4245
13434SOL    HW142296   6.501   0.432   0.815  1.1476 -1.2508 -1.1869
13434SOL    HW242297   6.368   0.363   0.799  0.7292 -0.5210 -0.9055
13435SOL     OW42298   3.358   1.438   2.298 -0.2824  0.6109  0.2505
13435SOL    HW142299   3.429   1.470   2.353  0.3692  1.3576 -0.9632
13435SOL    HW242300   3.343   1.348   2.327  0.3610  0.8232  1.3005
13436SOL     OW42301   8.094   2.087   5.024  0.5056 -0.1823  0.0482
13436SOL    HW142302   8.058   2.173   5.048  1.1246 -0.0125  0.3967
13436SOL    HW242303   8.078   2.080   4.930  0.5872  0.3904 -0.0166
13437SOL     OW42304   6.409   2.929   7.510  0.2094 -0.2743  0.5100
13437SOL    HW142305   6.321   2.957   7.539 -0.1278 -0.3110 -0.4347
13437SOL    HW242306   6.433   2.993   7.444  0.3347 -1.0216 -0.1768
13438SOL     OW42307   2.190   1.773   8.360 -0.4948 -0.5847 -0.2007
13438SOL    HW142308   2.229   1.746   8.443 -0.3087 -1.5997 -0.5986
13438SOL    HW242309   2.122   1.707   8.343 -2.4526  1.1415  0.4888
13439SOL     OW42310   8.855   6.391   0.460 -0.0275  0.5762  0.4540
13439SOL    HW142311   8.928   6.331   0.475  0.9724  1.1746 -1.7277
13439SOL    HW242312   8.821   6.409   0.547 -0.3410 -3.0841  1.2602
13440SOL     OW42313   6.376   6.339   3.119 -0.1439  0.6222  0.7547
13440SOL    HW142314   6.300   6.339   3.061  1.3428 -0.0799 -1.2896
13440SOL    HW242315   6.424   6.418   3.095  0.4647  0.3606  1.1071
13441SOL     OW42316   3.828   7.412   4.615  0.1518 -0.2403 -0.2048
13441SOL    HW142317   3.851   7.440   4.703 -2.0473  2.1217 -0.2654
13441SOL    HW242318   3.811   7.494   4.567 -0.7995 -1.5092 -2.1776
13442SOL     OW42319   5.697   7.397   8.451  0.0293  0.0339  0.1617
13442SOL    HW142320   5.637   7.333   8.489  0.8333 -0.9744 -0.2158
13442SOL    HW242321   5.657   7.482   8.471 -0.4278 -0.5218  1.7726
13443SOL     OW42322   3.074   6.511   1.061 -0.2728 -0.1738 -0.3665
13443SOL    HW142323   3.148   6.510   1.000 -0.2861  0.9572 -0.4118
13443SOL    HW242324   3.104   6.458   1.135  1.1759  1.4438  0.2757
13444SOL     OW42325   2.885   7.059   1.880  0.0668  0.1238 -0.0098
13444SOL    HW142326   2.828   7.111   1.938  0.2020  0.2432  0.0166
13444SOL    HW242327   2.841   7.063   1.795 -0.2493 -0.2385  0.1347
13445SOL     OW42328   0.675   3.913   6.092 -0.2101  0.2172 -0.5053
13445SOL    HW142329   0.614   3.855   6.047  0.8311 -0.5739 -0.9374
13445SOL    HW242330   0.759   3.897   6.050  0.9147 -0.8189  1.9038
13446SOL     OW42331   6.307   5.470   6.447 -0.3661 -0.1790  0.2767
13446SOL    HW142332   6.389   5.455   6.494  0.2050  1.6771 -0.0513
13446SOL    HW242333   6.333   5.474   6.355 -1.3766 -3.0964 -0.2211
13447SOL     OW42334   4.036   3.846   7.863 -0.0844 -0.7551  0.2497
13447SOL    HW142335   4.031   3.771   7.804  1.3179 -0.3843 -0.3665
13447SOL    HW242336   3.957   3.897   7.843 -1.2961 -2.2308  0.9792
13448SOL     OW42337   6.030   4.306   1.336  0.1764  0.1407 -0.9175
13448SOL    HW142338   5.996   4.362   1.406  0.6032 -0.0038 -0.5903
13448SOL    HW242339   6.125   4.312   1.344  0.2363 -0.7194 -0.7976
13449SOL     OW42340   2.687   0.840   0.713  0.2667  0.5495  0.0479
13449SOL    HW142341   2.626   0.913   0.726 -0.0464  0.4013 -0.5949
13449SOL    HW242342   2.757   0.877   0.660 -0.2807  0.1778 -0.9412
13450SOL     OW42343   7.000   0.271   7.962 -0.0220  0.0748  0.5821
13450SOL    HW142344   6.962   0.309   7.883 -1.7543 -1.8795  0.3849
13450SOL    HW242345   7.095   0.274   7.947 -0.2661  0.9283 -0.9858
13451SOL     OW42346   0.766   4.292   2.068  0.0247  0.3953  0.1205
13451SOL    HW142347   0.679   4.265   2.096 -0.0635  1.5174  0.9555
13451SOL    HW242348   0.753   4.332   1.982 -0.3098  0.7158  0.3202
13452SOL     OW42349   2.682   1.845   5.862 -0.1437 -0.6507  0.5943
13452SOL    HW142350   2.739   1.844   5.939  0.6061 -0.8446  0.0473
13452SOL    HW242351   2.647   1.756   5.857  0.8668 -1.0319 -0.0467
13453SOL     OW42352   6.228   2.431   5.856 -0.0932  0.0469 -0.0228
13453SOL    HW142353   6.263   2.433   5.767  0.1346 -0.3196  0.0565
13453SOL    HW242354   6.266   2.507   5.899 -0.4261  0.3862 -0.3206
13454SOL     OW42355   7.955   3.041   5.486  1.2299  0.3562 -0.4745
13454SOL    HW142356   8.005   2.996   5.554 -1.9400 -1.3974  0.8964
13454SOL    HW242357   7.923   3.120   5.528  0.7432  0.1763 -0.5035
13455SOL     OW42358   3.252   6.925   8.529 -0.3907  0.2228 -0.1369
13455SOL    HW142359   3.305   6.866   8.477  0.6753  2.2206 -1.4753
13455SOL    HW242360   3.315   6.985   8.570 -1.3759  0.1456  1.6036
13456SOL     OW42361   8.690   2.780   7.877  0.1051 -0.3253  0.6964
13456SOL    HW142362   8.758   2.728   7.834 -0.8289 -2.8254  2.0514
13456SOL    HW242363   8.719   2.787   7.968 -0.7581 -0.1948  0.9731
13457SOL     OW42364   2.825   6.117   2.335 -0.4855 -0.3437 -0.7037
13457SOL    HW142365   2.873   6.199   2.328 -1.7893  0.3091 -3.2119
13457SOL    HW242366   2.857   6.077   2.415  0.3559  2.5060  0.5052
13458SOL     OW42367   3.910   2.455   0.084 -0.2453 -0.2354 -0.3033
13458SOL    HW142368   3.983   2.447   0.146  1.4745 -0.4178 -2.2621
13458SOL    HW242369   3.864   2.371   0.090 -1.2382  0.4028  2.0003
13459SOL     OW42370   3.647   1.527   8.378  0.4220 -0.0815  0.1039
13459SOL    HW142371   3.567   1.518   8.430 -0.2950  0.0035 -0.9556
13459SOL    HW242372   3.697   1.447   8.397 -0.0413 -0.2698  0.5576
13460SOL     OW42373   2.872   0.921   6.183 -0.7590  0.4698  0.3903
13460SOL    HW142374   2.788   0.879   6.163 -0.1873  0.2068 -1.7415
13460SOL    HW242375   2.889   0.977   6.107  2.0368 -1.2166 -0.3959
13461SOL     OW42376   5.280   0.049   6.984 -0.0124 -0.0686  0.2516
13461SOL    HW142377   5.267   0.092   7.068  1.6697 -0.1826  0.5940
13461SOL    HW242378   5.218   0.092   6.925  0.5497  1.7806  0.9477
13462SOL     OW42379   4.049   0.778   4.026  0.2250  0.2863  0.2521
13462SOL    HW142380   4.130   0.773   4.076 -0.5904 -0.3347  1.5577
13462SOL    HW242381   4.000   0.700   4.051 -0.5114  0.3290 -0.9974
13463SOL     OW42382   1.130   2.473   3.443 -0.2507 -0.4183  0.3657
13463SOL    HW142383   1.221   2.498   3.456 -0.9213  1.3138  2.3333
13463SOL    HW242384   1.091   2.546   3.395 -0.7663 -0.8306  0.1403
13464SOL     OW42385   3.562   3.527   1.574  0.0951  0.2960  0.1199
13464SOL    HW142386   3.481   3.501   1.530 -0.6666  0.9385  1.0792
13464SOL    HW242387   3.596   3.599   1.521  1.2881 -1.4308 -1.5663
13465SOL     OW42388   7.711   2.293   6.895 -0.5002  0.1253 -0.3462
13465SOL    HW142389   7.777   2.356   6.865  0.2592 -0.9585 -1.0653
13465SOL    HW242390   7.731   2.213   6.845 -1.1465 -0.8120  0.8475
13466SOL     OW42391   8.712   6.736   4.081  0.1975 -0.4722 -0.1647
13466SOL    HW142392   8.680   6.788   4.007 -0.0685  0.4686  0.5805
13466SOL    HW242393   8.741   6.654   4.042 -0.7027 -0.3253 -1.2066
13467SOL     OW42394   0.593   5.765   4.187  0.1509 -0.0219  0.1490
13467SOL    HW142395   0.558   5.828   4.124 -1.7339  0.3577  1.4998
13467SOL    HW242396   0.618   5.689   4.134  2.4440  1.7357 -1.5250
13468SOL     OW42397   2.189   3.571   6.744  0.4150  0.1663 -0.1868
13468SOL    HW142398   2.157   3.637   6.682 -0.0944  0.2704  0.1791
13468SOL    HW242399   2.207   3.494   6.690 -1.0555 -0.0952 -0.3398
13469SOL     OW42400   2.154   2.856   7.276 -0.4266  0.0030  0.3684
13469SOL    HW142401   2.093   2.808   7.332 -0.9568  1.2361  0.8817
13469SOL    HW242402   2.236   2.806   7.281 -1.0380 -0.9948  0.6472
13470SOL     OW42403   2.175   7.780   0.634 -0.0222 -0.8152  0.4116
13470SOL    HW142404   2.084   7.801   0.652  0.0927 -1.1607  1.4413
13470SOL    HW242405   2.224   7.855   0.665  0.0336 -0.5254 -0.3625
13471SOL     OW42406   4.529   2.789   1.113 -0.4589 -0.7311  0.1486
13471SOL    HW142407   4.589   2.716   1.094  0.6205  0.1185  0.1752
13471SOL    HW242408   4.586   2.866   1.119 -1.7672  0.4961 -1.9014
13472SOL     OW42409   1.281   1.987   5.885 -0.3755 -0.6189 -0.6091
13472SOL    HW142410   1.310   2.078   5.895 -2.2834  0.0553 -0.8566
13472SOL    HW242411   1.295   1.948   5.972  0.1887 -0.0252 -0.4243
13473SOL     OW42412   0.838   5.013   5.629  0.2664 -0.5040 -0.1029
13473SOL    HW142413   0.885   5.095   5.641 -0.1853 -0.0340 -1.3820
13473SOL    HW242414   0.805   5.016   5.539 -1.7136 -1.0524  0.5411
13474SOL     OW42415   6.255   4.439   6.921 -0.1305 -0.1605 -0.0292
13474SOL    HW142416   6.190   4.508   6.907  0.5693  0.7779  1.1811
13474SOL    HW242417   6.205   4.367   6.959 -0.9262 -0.4686 -1.6059
13475SOL     OW42418   8.885   2.630   3.236  0.3959  0.1078 -0.3409
13475SOL    HW142419   8.874   2.714   3.190 -2.7955  0.2347  0.4084
13475SOL    HW242420   8.954   2.585   3.188  1.2951  2.6003 -1.5773
13476SOL     OW42421   3.418   7.674   2.381 -0.2742 -0.0754 -0.3313
13476SOL    HW142422   3.477   7.682   2.456 -3.5239  1.2755  2.3516
13476SOL    HW242423   3.447   7.596   2.335  2.9322 -0.0003  1.3200
13477SOL     OW42424   1.025   0.891   7.935  0.0755  0.0956  0.0986
13477SOL    HW142425   1.121   0.889   7.932  0.0674  0.1898 -0.4716
13477SOL    HW242426   1.004   0.913   8.025  0.5829 -0.5474  0.3879
13478SOL     OW42427   2.123   5.016   7.152  0.3079 -0.0626 -0.3090
13478SOL    HW142428   2.161   4.972   7.075 -0.1308 -0.0768 -0.5213
13478SOL    HW242429   2.060   4.952   7.186  0.1147  0.1578 -0.2557
13479SOL     OW42430   0.255   4.322   6.964  0.5266  0.6583 -0.7065
13479SOL    HW142431   0.268   4.409   7.001  0.2683  0.8988 -1.1785
13479SOL    HW242432   0.238   4.337   6.871  1.6564  0.0363 -1.0333
13480SOL     OW42433   0.454   3.103   7.717  0.3109  0.0498 -0.0206
13480SOL    HW142434   0.549   3.111   7.722  0.2344  1.8682 -0.7297
13480SOL    HW242435   0.421   3.164   7.782 -0.4194 -1.6940  1.3448
13481SOL     OW42436   7.773   1.756   0.480 -0.0101 -0.0773  0.5517
13481SOL    HW142437   7.825   1.730   0.404  0.2850  1.1703  0.2964
13481SOL    HW242438   7.759   1.850   0.468 -1.1154 -0.1181  1.3517
13482SOL     OW42439   4.061   1.138   8.543 -0.5158 -0.2950 -0.7765
13482SOL    HW142440   4.068   1.132   8.448  0.4951  1.6193 -0.8769
13482SOL    HW242441   4.117   1.067   8.576  0.0320 -0.2683 -1.6269
13483SOL     OW42442   1.580   7.125   5.428  0.4370  0.4435  0.2770
13483SOL    HW142443   1.500   7.168   5.455  0.4157 -0.1450  1.1698
13483SOL    HW242444   1.551   7.054   5.370  0.2714 -0.0469  0.9503
13484SOL     OW42445   8.435   1.356   5.206  0.5928  0.5098  0.3947
13484SOL    HW142446   8.353   1.308   5.215  1.3708 -1.2668 -1.3749
13484SOL    HW242447   8.441   1.407   5.287 -0.7027 -1.7133  2.0038
13485SOL     OW42448   4.683   7.297   5.990  0.5248  0.2536 -0.5766
13485SOL    HW142449   4.665   7.383   6.027  0.1791 -0.6817  1.5493
13485SOL    HW242450   4.767   7.272   6.029  0.0629 -0.8428 -0.2679
13486SOL     OW42451   4.834   6.810   7.331  0.2512  0.2915  0.3477
13486SOL    HW142452   4.741   6.791   7.342 -0.0459  1.4910  0.0218
13486SOL    HW242453   4.861   6.754   7.258 -0.3524  0.3671  0.0628
13487SOL     OW42454   3.391   7.249   4.049  0.1737  0.6389 -0.2273
13487SOL    HW142455   3.462   7.304   4.016  0.2628  1.1314  0.7477
13487SOL    HW242456   3.356   7.297   4.124 -0.3943 -0.1720  0.0480
13488SOL     OW42457   2.484   2.192   2.570  0.1748  0.0437  0.0218
13488SOL    HW142458   2.576   2.180   2.594 -0.2180  1.0529  2.2442
13488SOL    HW242459   2.445   2.106   2.582  1.0532 -0.8310 -2.5153
13489SOL     OW42460   7.376   3.262   4.312 -0.2402 -0.1893  0.6082
13489SOL    HW142461   7.455   3.309   4.339 -0.4514  0.5431 -0.0075
13489SOL    HW242462   7.323   3.329   4.269  0.2661 -1.3688 -2.0203
13490SOL     OW42463   4.378   5.412   6.289 -0.0474  0.1096  0.7219
13490SOL    HW142464   4.460   5.363   6.288  0.6410  1.1284  2.3998
13490SOL    HW242465   4.325   5.371   6.357 -0.7009 -0.1504  0.0767
13491SOL     OW42466   4.169   2.090   7.694  0.4884  0.0709 -0.3411
13491SOL    HW142467   4.254   2.088   7.650  1.9004 -0.7284  2.2285
13491SOL    HW242468   4.147   1.998   7.710 -0.4357  0.3018 -0.1802
13492SOL     OW42469   7.832   6.514   6.173  0.0519 -0.8923 -1.1060
13492SOL    HW142470   7.777   6.485   6.246  0.7027  1.2635  0.3370
13492SOL    HW242471   7.920   6.484   6.196  0.4709  0.8425 -0.3383
13493SOL     OW42472   0.016   1.619   6.116  0.4681 -0.3838 -0.3208
13493SOL    HW142473   0.045   1.545   6.064 -1.0435 -0.8513 -0.5514
13493SOL    HW242474   0.086   1.683   6.108  0.9182 -1.0111 -1.7552
13494SOL     OW42475   5.484   3.793   0.771  0.1834  0.0291 -0.3591
13494SOL    HW142476   5.546   3.808   0.700  1.3917 -2.0473  0.1672
13494SOL    HW242477   5.527   3.828   0.849 -0.5068  0.9851 -0.3874
13495SOL     OW42478   6.350   1.226   3.526  0.5727 -0.3210 -0.0722
13495SOL    HW142479   6.365   1.168   3.600  0.3952  1.8371  1.7416
13495SOL    HW242480   6.268   1.194   3.487  0.9723 -1.8296  0.2541
13496SOL     OW42481   7.459   5.938   1.298 -0.1500  0.7810  0.4736
13496SOL    HW142482   7.552   5.954   1.314  0.0446  1.2228 -0.9442
13496SOL    HW242483   7.448   5.844   1.313  0.6800  0.5952 -0.0358
13497SOL     OW42484   8.496   2.931   0.703 -0.0103  0.2734 -0.1660
13497SOL    HW142485   8.511   2.997   0.771  1.4821 -0.4949  0.2741
13497SOL    HW242486   8.426   2.969   0.650  0.3119  1.8985  0.4839
13498SOL     OW42487   6.014   1.229   6.342 -0.1940  0.5087  0.1108
13498SOL    HW142488   5.929   1.212   6.382  0.9661 -1.7842  1.7909
13498SOL    HW242489   5.993   1.273   6.260 -2.9515  0.5371  0.7292
13499SOL     OW42490   3.521   1.465   5.137  0.2055 -0.1596 -0.1393
13499SOL    HW142491   3.436   1.470   5.182  0.1980  0.6329 -0.2192
13499SOL    HW242492   3.585   1.479   5.207  0.1466  2.9515 -0.5626
13500SOL     OW42493   6.264   3.751   1.324 -0.7631 -0.2702  0.4517
13500SOL    HW142494   6.288   3.843   1.335 -2.1198 -0.0506  1.8262
13500SOL    HW242495   6.175   3.753   1.290 -0.4696 -1.0972 -0.4347
13501SOL     OW42496   1.346   4.145   3.237 -0.1454  0.5058  0.2214
13501SOL    HW142497   1.422   4.168   3.183 -0.5881  0.8895 -0.2412
13501SOL    HW242498   1.358   4.052   3.256  0.1808  0.4431 -0.2738
13502SOL     OW42499   7.737   0.336   7.685  0.2485  0.1339  0.0458
13502SOL    HW142500   7.825   0.331   7.721  0.5997 -0.3787 -0.8643
13502SOL    HW242501   7.695   0.255   7.712  1.0046 -0.9731 -1.9112
13503SOL     OW42502   7.029   7.331   2.770 -0.0373 -0.3243  0.1082
13503SOL    HW142503   7.002   7.261   2.830  0.4559  1.5074  2.5940
13503SOL    HW242504   7.092   7.289   2.711 -0.0000 -2.0261  1.2915
13504SOL     OW42505   8.211   1.387   3.513 -0.0559 -0.5379 -0.2632
13504SOL    HW142506   8.211   1.441   3.592 -1.2271  0.5674 -0.9743
13504SOL    HW242507   8.289   1.332   3.521  0.7061  0.6534  0.9156
13505SOL     OW42508   8.812   5.945   7.386 -0.2450  0.0021 -0.2161
13505SOL    HW142509   8.721   5.975   7.386 -0.0477  0.6517  0.9571
13505SOL    HW242510   8.820   5.894   7.466  0.5004  0.2198 -0.1480
13506SOL     OW42511   6.690   8.421   2.521  0.0045 -0.3732  0.2589
13506SOL    HW142512   6.694   8.427   2.617  1.1759 -0.2864  0.2197
13506SOL    HW242513   6.744   8.493   2.490  0.3310 -0.9152 -0.4600
13507SOL     OW42514   5.493   1.178   5.100  0.0015 -0.1708  0.0953
13507SOL    HW142515   5.503   1.214   5.188 -0.5209  0.1636  0.0223
13507SOL    HW242516   5.419   1.226   5.063  0.0710 -0.4741 -0.4420
13508SOL     OW42517   6.305   0.836   8.325  0.0204  0.1053 -0.1780
13508SOL    HW142518   6.266   0.832   8.238 -2.4381  1.2904  0.7874
13508SOL    HW242519   6.329   0.928   8.337  0.9558 -0.1672  0.1682
13509SOL     OW42520   6.957   5.114   2.087 -0.4753 -0.2793 -0.1422
13509SOL    HW142521   6.900   5.183   2.054  0.4968 -0.4992 -2.4896
13509SOL    HW242522   6.993   5.073   2.009 -1.2006 -3.6752  1.1464
13510SOL     OW42523   0.307   1.504   5.567 -0.1320  0.3431 -0.6496
13510SOL    HW142524   0.370   1.480   5.500  0.5997 -0.1072  0.1787
13510SOL    HW242525   0.295   1.423   5.618 -1.3230  0.4418 -0.7538
13511SOL     OW42526   8.206   5.665   5.351  1.0108  0.2522 -0.1756
13511SOL    HW142527   8.229   5.583   5.394 -1.4734 -0.3968  0.0926
13511SOL    HW242528   8.201   5.729   5.422  0.2744 -0.0300  0.0411
13512SOL     OW42529   3.251   3.303   8.720  0.7471  0.4152 -0.7847
13512SOL    HW142530   3.261   3.333   8.630  2.8252  0.4448 -0.6087
13512SOL    HW242531   3.322   3.347   8.767  1.0950 -1.3140  0.4029
13513SOL     OW42532   1.258   8.662   6.326 -0.1729 -0.0967  0.0865
13513SOL    HW142533   1.183   8.636   6.379 -0.6875 -0.6853 -0.9003
13513SOL    HW242534   1.223   8.729   6.267 -0.3119 -1.3628 -1.3386
13514SOL     OW42535   6.708   7.832   4.302 -0.6267 -0.1004  0.3691
13514SOL    HW142536   6.657   7.796   4.229 -2.5772  2.4343  0.3614
13514SOL    HW242537   6.784   7.874   4.260 -0.5537 -0.5724  0.0203
13515SOL     OW42538   0.392   3.429   2.498  0.1534 -0.1665  0.1335
13515SOL    HW142539   0.331   3.494   2.532  0.4959 -1.3016  3.2355
13515SOL    HW242540   0.462   3.480   2.456 -0.4531  1.3517  0.9112
13516SOL     OW42541   0.809   0.187   8.651  0.0045  0.0188  0.2503
13516SOL    HW142542   0.749   0.167   8.579 -0.1027  1.2647 -0.0433
13516SOL    HW242543   0.882   0.233   8.608 -0.0200  0.7013  0.9135
13517SOL     OW42544   7.862   4.094   5.838  0.0485  0.1940  0.3832
13517SOL    HW142545   7.868   4.086   5.743  1.0327 -0.6020  0.4974
13517SOL    HW242546   7.773   4.067   5.859 -0.1078  0.1681 -0.3014
13518SOL     OW42547   2.909   8.612   2.834  0.2508 -0.0852 -0.2679
13518SOL    HW142548   2.872   8.689   2.791  2.9055  1.6811  0.3980
13518SOL    HW242549   2.936   8.556   2.762 -3.0161 -1.2509 -0.7855
13519SOL     OW42550   8.685   1.122   5.925 -0.3968 -0.2130  0.4760
13519SOL    HW142551   8.735   1.041   5.935 -1.2863 -0.7306  0.9101
13519SOL    HW242552   8.677   1.134   5.830 -0.9799 -1.1074  0.4017
13520SOL     OW42553   3.660   4.671   3.905  0.1943  0.1129  0.1485
13520SOL    HW142554   3.650   4.600   3.842  0.8778 -0.5966  0.8102
13520SOL    HW242555   3.688   4.746   3.852 -1.9053  0.3295 -0.7651
13521SOL     OW42556   4.089   7.202   1.409 -0.0280  0.0109  0.1908
13521SOL    HW142557   4.078   7.269   1.342  0.0883 -3.1773 -3.3058
13521SOL    HW242558   4.184   7.195   1.421  0.0318 -0.5293 -0.5702
13522SOL     OW42559   6.057   1.040   1.748  0.3454  1.0196 -0.3401
13522SOL    HW142560   6.086   0.956   1.712 -1.6702  0.4117 -0.7046
13522SOL    HW242561   6.106   1.049   1.830 -0.7920 -1.5512  0.7653
13523SOL     OW42562   5.727   3.373   8.519 -0.1115  0.4096 -0.5203
13523SOL    HW142563   5.748   3.316   8.444 -1.6194 -0.4756 -0.3045
13523SOL    HW242564   5.737   3.462   8.485 -1.3375  0.0366 -1.9575
13524SOL     OW42565   8.612   3.767   6.953  0.1715  0.0591 -0.2372
13524SOL    HW142566   8.556   3.779   6.876  1.1037  3.5180 -0.5413
13524SOL    HW242567   8.699   3.753   6.917  0.4469  0.7118  0.1421
13525SOL     OW42568   3.855   6.653   6.844  0.4903 -0.2678  0.0235
13525SOL    HW142569   3.839   6.686   6.755  0.1352 -0.3176  0.0654
13525SOL    HW242570   3.768   6.647   6.883  0.5933 -0.7945  0.1806
13526SOL     OW42571   1.539   2.419   1.682  0.1695  0.3913  0.2466
13526SOL    HW142572   1.615   2.465   1.717  0.4287  0.5570 -0.5221
13526SOL    HW242573   1.474   2.423   1.753  0.4378  1.3262  0.4544
13527SOL     OW42574   4.302   6.127   0.096  0.1985 -0.6351  0.0082
13527SOL    HW142575   4.216   6.096   0.068  0.7673 -2.6663  0.3306
13527SOL    HW242576   4.361   6.055   0.075  1.6317  0.2161  0.9347
13528SOL     OW42577   0.262   0.963   6.680 -0.1279  0.9755 -0.2210
13528SOL    HW142578   0.294   1.048   6.711  1.1698  0.1877  0.7081
13528SOL    HW242579   0.187   0.943   6.736  0.9313  0.5159  1.0792
13529SOL     OW42580   8.256   2.594   1.709  0.2481 -0.6192  0.2731
13529SOL    HW142581   8.305   2.581   1.627  1.8207  1.3757  0.8234
13529SOL    HW242582   8.169   2.560   1.690  0.4460  0.1244 -2.3786
13530SOL     OW42583   1.220   1.823   3.018 -0.0202 -0.8651 -0.0453
13530SOL    HW142584   1.252   1.737   3.045 -0.0924 -1.3977 -1.5581
13530SOL    HW242585   1.163   1.851   3.090  1.0279 -1.4831  1.0592
13531SOL     OW42586   5.664   1.967   4.931  0.5479 -0.1802 -0.1200
13531SOL    HW142587   5.710   1.883   4.934  0.8202 -0.1013 -1.4639
13531SOL    HW242588   5.572   1.943   4.916  0.3965 -0.2791  0.9215
13532SOL     OW42589   0.893   7.916   4.071 -0.7757 -0.3098  0.6102
13532SOL    HW142590   0.809   7.900   4.029 -0.7950  1.1389  0.0398
13532SOL    HW242591   0.871   7.968   4.148 -0.5246 -1.1367  1.2591
13533SOL     OW42592   4.766   4.499   7.984 -0.2270  0.0758 -0.3549
13533SOL    HW142593   4.763   4.411   7.945  1.0921 -0.3277  0.3882
13533SOL    HW242594   4.860   4.519   7.989 -0.4716  1.0639  0.5085
13534SOL     OW42595   6.505   5.213   7.127  0.4306 -0.6274 -0.0506
13534SOL    HW142596   6.492   5.136   7.072 -0.6855  0.4542 -1.3501
13534SOL    HW242597   6.590   5.248   7.100  0.2221 -0.5152 -0.5575
13535SOL     OW42598   8.493   4.800   6.369 -0.2473  0.3485 -0.1076
13535SOL    HW142599   8.567   4.860   6.376  2.1930 -2.5064  0.7598
13535SOL    HW242600   8.462   4.811   6.279 -1.3675  4.3014  0.6024
13536SOL     OW42601   2.654   1.715   4.703  0.6245 -0.5563 -0.0801
13536SOL    HW142602   2.728   1.737   4.759 -0.3367  0.4002  0.8486
13536SOL    HW242603   2.695   1.677   4.624  2.0378 -0.8960  0.7758
13537SOL     OW42604   3.049   7.135   3.573 -0.0652 -1.2774 -0.5584
13537SOL    HW142605   2.971   7.173   3.613  0.3667 -0.4147 -0.5040
13537SOL    HW242606   3.076   7.201   3.509  1.5773 -0.7752  0.5932
13538SOL     OW42607   8.021   4.252   6.748  0.2414 -0.0205  0.1627
13538SOL    HW142608   7.933   4.286   6.736 -0.6996 -1.6261  1.9968
13538SOL    HW242609   8.022   4.169   6.700  0.3774 -0.5460  1.0578
13539SOL     OW42610   7.012   5.293   1.607 -0.5936 -0.0765  0.3154
13539SOL    HW142611   7.042   5.233   1.675 -0.8920 -1.4938 -0.7737
13539SOL    HW242612   6.968   5.363   1.655  1.1230  0.1062  1.7019
13540SOL     OW42613   1.999   4.476   2.028 -0.2722  0.1402  0.2997
13540SOL    HW142614   2.094   4.483   2.040 -0.0113  0.3529 -1.5670
13540SOL    HW242615   1.971   4.564   2.003 -1.0106  0.1143  0.9789
13541SOL     OW42616   1.509   8.834   8.825 -0.1095  0.1027 -0.0368
13541SOL    HW142617   1.551   8.914   8.856 -0.7086 -0.2629  1.8161
13541SOL    HW242618   1.580   8.769   8.824  0.0514  0.2779 -0.0610
13542SOL     OW42619   3.686   8.318   3.886 -0.0875 -0.1945 -0.0428
13542SOL    HW142620   3.682   8.397   3.940  1.8216  2.2923 -3.1918
13542SOL    HW242621   3.779   8.308   3.865 -0.7160 -0.9122 -2.8994
13543SOL     OW42622   5.082   1.378   5.191  0.6115 -0.0906  0.0488
13543SOL    HW142623   5.158   1.325   5.165 -0.1580 -0.8943 -0.5855
13543SOL    HW242624   5.047   1.413   5.110  0.5742  0.6809  0.3854
13544SOL     OW42625   2.730   8.171   7.619  0.1008  0.2079  0.3046
13544SOL    HW142626   2.661   8.108   7.643  1.3700 -0.4581  2.4341
13544SOL    HW242627   2.752   8.148   7.528 -1.5784 -0.3812  0.0071
13545SOL     OW42628   2.879   3.405   7.011 -0.2631 -0.1799  0.4831
13545SOL    HW142629   2.874   3.457   6.930 -1.8776 -0.7622  0.1627
13545SOL    HW242630   2.799   3.429   7.059  1.2450  1.0678  2.5237
13546SOL     OW42631   4.942   2.465   8.718  0.2882  0.2674 -0.3770
13546SOL    HW142632   4.856   2.429   8.696 -0.1656  0.6327  0.7108
13546SOL    HW242633   4.976   2.498   8.635 -0.4062 -0.3286 -0.9140
13547SOL     OW42634   1.750   1.482   6.264 -0.1906 -0.1537  0.1198
13547SOL    HW142635   1.666   1.482   6.309 -0.8849 -0.2877 -1.1153
13547SOL    HW242636   1.745   1.406   6.206  0.8692 -0.2762  0.1723
13548SOL     OW42637   7.523   6.543   7.086 -0.4153  0.6517 -0.0864
13548SOL    HW142638   7.485   6.525   7.000 -3.2092 -1.1294  1.3432
13548SOL    HW242639   7.473   6.618   7.119  1.4156  2.0737 -0.3633
13549SOL     OW42640   7.807   1.836   8.553  0.0108  0.4515 -0.1186
13549SOL    HW142641   7.796   1.894   8.628 -1.9696  1.6950 -1.2872
13549SOL    HW242642   7.739   1.862   8.491  0.1824 -1.9525 -1.4819
13550SOL     OW42643   2.421   8.148   1.828  0.4289 -0.2826  0.3423
13550SOL    HW142644   2.392   8.204   1.900  0.1124 -0.7617  0.5957
13550SOL    HW242645   2.514   8.135   1.844  0.1555 -1.2599  1.2851
13551SOL     OW42646   3.777   5.550   5.501  0.5107  0.2933 -1.1159
13551SOL    HW142647   3.862   5.557   5.544  0.3114 -1.2780 -0.3887
13551SOL    HW242648   3.745   5.640   5.496  0.8848  0.6490  1.3929
13552SOL     OW42649   2.661   4.101   2.210 -0.1694 -0.5216  0.1657
13552SOL    HW142650   2.651   4.165   2.139  1.2099  1.0256  1.3007
13552SOL    HW242651   2.572   4.090   2.244 -0.9368 -1.5783 -1.9694
13553SOL     OW42652   1.095   1.284   6.049  0.6051 -0.0427  1.0319
13553SOL    HW142653   1.172   1.318   6.004  0.2494 -0.4660  0.0779
13553SOL    HW242654   1.062   1.215   5.992 -0.1342 -0.2733  1.7176
13554SOL     OW42655   8.807   0.712   8.451 -0.6052 -0.4080  0.3359
13554SOL    HW142656   8.826   0.732   8.542 -0.0161 -0.3307  0.1984
13554SOL    HW242657   8.788   0.618   8.451 -1.7748 -0.1858  0.7179
13555SOL     OW42658   4.924   7.460   8.695  0.6869 -0.3144  0.0251
13555SOL    HW142659   4.963   7.471   8.608  0.8915  2.9205  0.3768
13555SOL    HW242660   4.847   7.405   8.681  1.0999 -0.4240 -2.0934
13556SOL     OW42661   5.955   4.434   2.382 -0.2998  0.3498 -0.4943
13556SOL    HW142662   5.866   4.467   2.399  0.8365  3.0417  0.8209
13556SOL    HW242663   5.998   4.504   2.334  1.7968  0.1802  0.9829
13557SOL     OW42664   7.600   1.431   4.980 -0.2052 -0.4139 -0.0485
13557SOL    HW142665   7.656   1.479   5.041 -0.2075  0.1095 -0.4548
13557SOL    HW242666   7.511   1.450   5.011 -0.2786  0.9647 -0.9957
13558SOL     OW42667   3.811   3.487   2.668  0.1141  0.1797 -0.4380
13558SOL    HW142668   3.841   3.569   2.629  0.7872  0.7632  1.2052
13558SOL    HW242669   3.819   3.501   2.763 -0.2995 -1.5820 -0.1041
13559SOL     OW42670   1.281   3.691   3.799 -0.3143 -0.3555  0.0554
13559SOL    HW142671   1.252   3.643   3.876  0.4362  0.2205  0.7080
13559SOL    HW242672   1.347   3.634   3.758 -0.5091 -0.5351 -0.0110
13560SOL     OW42673   1.725   7.078   1.921  0.3080 -0.3777 -0.1225
13560SOL    HW142674   1.793   7.143   1.903 -0.5035  1.3181  2.4118
13560SOL    HW242675   1.768   6.994   1.907  2.8280  0.6323  0.9060
13561SOL     OW42676   1.411   0.743   7.814 -0.2949  0.7582  0.0645
13561SOL    HW142677   1.345   0.686   7.853 -0.7352  0.8553 -0.5322
13561SOL    HW242678   1.456   0.688   7.750 -0.4134  0.9508 -0.1864
13562SOL     OW42679   4.525   1.471   2.098  0.0520  0.0843 -0.4408
13562SOL    HW142680   4.433   1.444   2.090 -0.2690  1.0083  0.0299
13562SOL    HW242681   4.574   1.398   2.059 -0.7304 -1.4930  1.3477
13563SOL     OW42682   7.756   2.983   2.790  0.4515 -0.0859  0.0057
13563SOL    HW142683   7.805   3.063   2.809 -1.7335  1.7402 -1.5530
13563SOL    HW242684   7.819   2.926   2.747  1.3689  2.0323 -1.6339
13564SOL     OW42685   6.842   0.679   5.769  0.5363  0.6388 -0.3114
13564SOL    HW142686   6.786   0.639   5.702  1.6709 -2.7023  0.5683
13564SOL    HW242687   6.928   0.683   5.729  0.4537  2.4642 -0.3994
13565SOL     OW42688   6.428   8.135   3.382  0.2226  0.2721 -0.4943
13565SOL    HW142689   6.402   8.223   3.407 -0.4231  0.5284 -1.9569
13565SOL    HW242690   6.519   8.145   3.351  1.0673 -0.0672  1.6810
13566SOL     OW42691   7.120   5.369   8.804 -0.2078 -0.3701 -0.0697
13566SOL    HW142692   7.161   5.449   8.836  0.0202 -1.2017  1.8409
13566SOL    HW242693   7.032   5.396   8.779  0.5656  0.8947 -1.6448
13567SOL     OW42694   7.865   3.654   8.136 -0.1404 -0.3189  0.0924
13567SOL    HW142695   7.871   3.750   8.132 -0.8821 -0.1607  1.8910
13567SOL    HW242696   7.936   3.623   8.080 -0.9893  1.2576 -2.0061
13568SOL     OW42697   0.365   7.541   6.265  0.1866  0.1896 -0.1611
13568SOL    HW142698   0.385   7.633   6.247 -3.8430  1.1880 -0.3755
13568SOL    HW242699   0.339   7.505   6.180  0.2988 -0.7196  0.1863
13569SOL     OW42700   5.116   5.286   0.981 -0.0264  0.5926 -0.2945
13569SOL    HW142701   5.175   5.359   0.964  1.1963 -0.3786 -0.4239
13569SOL    HW242702   5.040   5.302   0.925 -0.2947  2.3066  0.5046
13570SOL     OW42703   5.600   0.990   0.747  0.0461 -0.2567  0.4318
13570SOL    HW142704   5.631   0.956   0.831  1.7167 -2.0594 -0.8289
13570SOL    HW242705   5.667   1.051   0.718 -1.4686  1.9052  1.2379
13571SOL     OW42706   2.908   1.875   6.729  0.6554  0.1335 -0.4593
13571SOL    HW142707   2.928   1.806   6.793 -0.4178 -2.6758 -2.8836
13571SOL    HW242708   2.985   1.879   6.673  0.6586  0.8230 -0.4040
13572SOL     OW42709   8.283   6.680   4.392 -0.1642  0.0174 -0.2294
13572SOL    HW142710   8.193   6.675   4.361 -0.1140  1.6131 -0.7428
13572SOL    HW242711   8.278   6.665   4.486 -0.7280 -1.5979 -0.4792
13573SOL     OW42712   0.558   8.892   3.803  0.6996 -0.0227 -0.3168
13573SOL    HW142713   0.619   8.821   3.784  0.3671 -0.2361 -0.5997
13573SOL    HW242714   0.584   8.962   3.743  1.4719  0.3609  0.4440
13574SOL     OW42715   7.313   4.140   3.169 -0.1382 -0.0167 -0.1699
13574SOL    HW142716   7.358   4.186   3.099  0.2434  1.6465  1.1040
13574SOL    HW242717   7.268   4.068   3.125  1.5141 -0.1018 -1.8512
13575SOL     OW42718   7.027   7.792   6.389 -0.0127  0.2341  0.3228
13575SOL    HW142719   7.072   7.838   6.318  0.8346  0.4616  0.9932
13575SOL    HW242720   7.097   7.752   6.441 -0.5887  0.4339  1.2830
13576SOL     OW42721   7.861   3.540   2.053  0.3461  0.2831 -0.6606
13576SOL    HW142722   7.902   3.611   2.002 -0.8475  0.9166 -0.7733
13576SOL    HW242723   7.875   3.566   2.144  1.6066 -0.3440 -0.6518
13577SOL     OW42724   5.097   0.150   1.267  0.5461  0.1539 -0.0076
13577SOL    HW142725   5.178   0.103   1.286 -0.4500 -0.7807  2.2555
13577SOL    HW242726   5.085   0.209   1.341 -1.9725 -1.4150  0.9761
13578SOL     OW42727   6.750   8.556   6.798 -0.0050  0.4192  0.6428
13578SOL    HW142728   6.785   8.611   6.868 -0.5028  0.0885  1.1588
13578SOL    HW242729   6.828   8.515   6.759  0.3069  0.9149  0.7292
13579SOL     OW42730   0.642   0.579   6.566 -0.4688  0.2335 -0.3184
13579SOL    HW142731   0.716   0.639   6.559 -0.7115  0.6288  0.3429
13579SOL    HW242732   0.569   0.635   6.595 -1.8788  0.5303 -3.9038
13580SOL     OW42733   6.723   2.521   4.241  0.1809  0.0454  0.3375
13580SOL    HW142734   6.785   2.542   4.172 -2.4330  1.2208 -1.8218
13580SOL    HW242735   6.684   2.606   4.264 -1.7373 -0.8367  0.4585
13581SOL     OW42736   2.179   0.742   7.625 -0.0166  0.1366  0.0292
13581SOL    HW142737   2.186   0.759   7.719 -0.4932  1.2235 -0.1085
13581SOL    HW242738   2.218   0.820   7.585  0.9585 -0.6978 -0.6841
13582SOL     OW42739   1.871   2.148   5.380 -0.2970  0.1560  0.7976
13582SOL    HW142740   1.960   2.132   5.413  0.9836  1.5486 -1.7166
13582SOL    HW242741   1.879   2.136   5.286 -2.6769  0.9441  0.4533
13583SOL     OW42742   1.157   2.426   3.067 -0.1961 -0.2720  0.3567
13583SOL    HW142743   1.139   2.503   3.122  2.0769  0.3809  0.2815
13583SOL    HW242744   1.070   2.392   3.046 -1.3597  2.5635 -0.0021
13584SOL     OW42745   7.404   3.414   3.525  0.6982 -0.1373 -0.8191
13584SOL    HW142746   7.343   3.420   3.599 -1.7468 -1.1035 -2.6151
13584SOL    HW242747   7.381   3.489   3.470  1.9351  0.1030 -1.0341
13585SOL     OW42748   6.527   6.805   7.334 -0.0006  0.4191  0.1813
13585SOL    HW142749   6.503   6.719   7.301 -0.8907  0.8314 -0.2904
13585SOL    HW242750   6.534   6.794   7.429  1.1759 -0.4532  0.0060
13586SOL     OW42751   3.588   5.163   0.796  0.2503  0.3353  0.2619
13586SOL    HW142752   3.625   5.099   0.735 -0.9887 -0.8087  0.6685
13586SOL    HW242753   3.567   5.239   0.742  1.2071  0.1898 -0.3324
13587SOL     OW42754   3.758   5.385   4.692 -0.7044  0.2676  0.6213
13587SOL    HW142755   3.773   5.323   4.763  1.8171  1.2556  1.0294
13587SOL    HW242756   3.732   5.466   4.735 -0.0969  0.5988  0.3845
13588SOL     OW42757   0.610   5.358   7.174  0.1759  0.1701  0.4865
13588SOL    HW142758   0.561   5.414   7.235  1.0562  2.7588 -1.0420
13588SOL    HW242759   0.627   5.414   7.099  1.4344 -2.1123 -1.0262
13589SOL     OW42760   1.443   3.360   1.683 -0.1023  0.5017  0.5158
13589SOL    HW142761   1.498   3.283   1.670 -2.0400 -1.3130  2.1917
13589SOL    HW242762   1.353   3.325   1.683 -1.0470  2.7376  1.5592
13590SOL     OW42763   0.474   8.619   7.277  0.1544 -0.4337  0.4301
13590SOL    HW142764   0.399   8.661   7.320 -0.4985  1.6614 -2.4409
13590SOL    HW242765   0.549   8.673   7.300  0.7199 -1.9753  2.5102
13591SOL     OW42766   4.075   3.474   1.326 -0.2158  0.3454  0.6954
13591SOL    HW142767   4.023   3.414   1.274  0.2099 -0.6490  1.3893
13591SOL    HW242768   4.164   3.437   1.324 -0.0283  0.7269  1.4529
13592SOL     OW42769   0.079   2.279   8.661  0.4319 -0.1295 -0.0090
13592SOL    HW142770  -0.007   2.301   8.697  0.3691  0.4221 -0.4977
13592SOL    HW242771   0.090   2.337   8.586  1.0185 -0.5442 -0.2531
13593SOL     OW42772   3.406   0.494   1.247  0.7027  0.0253 -0.1516
13593SOL    HW142773   3.326   0.513   1.197  0.9582  0.9797 -0.2271
13593SOL    HW242774   3.455   0.576   1.244  2.1024 -0.8116 -0.8396
13594SOL     OW42775   7.154   8.449   1.546  0.1520  0.1791 -0.5178
13594SOL    HW142776   7.148   8.544   1.541 -0.3227  0.1871  0.1761
13594SOL    HW242777   7.244   8.429   1.519  0.5382  0.8906  0.2002
13595SOL     OW42778   4.708   5.055   1.518  0.3986  0.0552  0.7735
13595SOL    HW142779   4.678   5.121   1.455  0.4691 -1.0241 -0.4121
13595SOL    HW242780   4.654   5.071   1.596 -0.3554  0.8005  0.1206
13596SOL     OW42781   6.510   2.067   8.050  0.0832  0.0029  0.1043
13596SOL    HW142782   6.501   2.099   8.140 -1.0335 -2.5978  1.0138
13596SOL    HW242783   6.578   1.999   8.055 -1.2747 -1.4824 -0.5654
13597SOL     OW42784   3.792   2.059   4.423 -0.0263  0.2856 -0.5034
13597SOL    HW142785   3.820   2.126   4.485  1.6234 -1.8871  1.2722
13597SOL    HW242786   3.867   2.047   4.365 -0.9825  1.1792 -1.9886
13598SOL     OW42787   8.359   4.468   1.225  0.0249 -0.4471 -0.2222
13598SOL    HW142788   8.310   4.399   1.270  0.5749  0.1437  1.3435
13598SOL    HW242789   8.410   4.421   1.159 -1.1229 -1.2872 -0.5588
13599SOL     OW42790   6.465   3.953   7.531 -0.1452 -0.3735  0.4327
13599SOL    HW142791   6.489   3.910   7.449 -0.0391 -0.4364  0.4959
13599SOL    HW242792   6.501   3.896   7.599 -0.3208 -0.3742  0.5247
13600SOL     OW42793   5.060   3.966   8.871 -0.1488  0.6172  0.3678
13600SOL    HW142794   5.011   4.039   8.908 -0.8081  0.9942 -1.1566
13600SOL    HW242795   5.099   4.002   8.792 -0.0098 -0.5291 -0.1012
13601SOL     OW42796   2.604   0.642   7.506  0.1042 -0.2318 -0.0502
13601SOL    HW142797   2.675   0.629   7.443  1.0418 -2.9845  1.3978
13601SOL    HW242798   2.531   0.590   7.471  0.4290 -1.2783  0.7814
13602SOL     OW42799   6.751   2.081   2.635 -0.1295 -0.4675  0.1928
13602SOL    HW142800   6.791   2.102   2.551 -0.4893 -1.6953 -0.3030
13602SOL    HW242801   6.820   2.037   2.684 -0.2681 -0.8040  0.0889
13603SOL     OW42802   3.367   4.059   5.972  0.2678  0.1054  0.4231
13603SOL    HW142803   3.320   4.138   6.000 -1.0377  0.6214 -2.7860
13603SOL    HW242804   3.446   4.092   5.929  1.1969 -0.5366  1.5832
13604SOL     OW42805   1.286   1.843   0.381  0.1145 -0.1799 -0.3191
13604SOL    HW142806   1.370   1.802   0.404 -0.0229 -0.2933 -0.0151
13604SOL    HW242807   1.303   1.937   0.388  0.6903 -0.1297 -1.9199
13605SOL     OW42808   2.931   0.823   4.039  0.6316 -0.7951 -0.1253
13605SOL    HW142809   2.998   0.864   3.984 -0.5833 -0.4491 -1.4110
13605SOL    HW242810   2.930   0.732   4.011  0.0074 -0.6172 -0.7140
13606SOL     OW42811   2.673   5.390   5.545  0.0409  0.7051 -0.0442
13606SOL    HW142812   2.682   5.306   5.501 -3.7620 -0.1593  0.4660
13606SOL    HW242813   2.716   5.377   5.630  3.8228  1.0680 -1.6943
13607SOL     OW42814   0.839   6.408   0.591  0.2149 -0.2985  0.4050
13607SOL    HW142815   0.781   6.380   0.520 -1.8129  0.8589  1.5166
13607SOL    HW242816   0.839   6.335   0.653  1.6960 -1.1587 -0.5400
13608SOL     OW42817   5.151   1.865   2.513 -0.3366  0.2946  0.3162
13608SOL    HW142818   5.230   1.873   2.459 -1.9499  0.2650 -2.1756
13608SOL    HW242819   5.134   1.771   2.517 -0.9172  0.3713 -0.2074
13609SOL     OW42820   5.416   5.599   4.329 -0.7572  0.0615  0.1584
13609SOL    HW142821   5.401   5.529   4.265  0.1769 -1.4603  1.5088
13609SOL    HW242822   5.511   5.605   4.337 -0.8249  1.4475  0.1436
13610SOL     OW42823   2.409   2.736   2.382  0.4385 -0.1312  0.7653
13610SOL    HW142824   2.400   2.825   2.416 -1.2939 -0.8110  2.2730
13610SOL    HW242825   2.475   2.695   2.439  1.2831  0.1719  0.0316
13611SOL     OW42826   5.338   6.456   5.435 -0.0695  0.8187  0.1645
13611SOL    HW142827   5.423   6.469   5.393 -1.0435  0.7869 -1.9161
13611SOL    HW242828   5.291   6.539   5.421 -0.8280  0.4018  0.1824
13612SOL     OW42829   0.425   0.418   3.633 -0.5743  0.1302  0.5984
13612SOL    HW142830   0.485   0.493   3.629 -0.6330  0.1249 -0.6092
13612SOL    HW242831   0.410   0.394   3.542 -0.6752 -1.2705  0.9580
13613SOL     OW42832   0.431   0.804   7.678  0.5090  0.4500  0.7109
13613SOL    HW142833   0.371   0.745   7.725  2.3739 -3.2552 -1.0740
13613SOL    HW242834   0.495   0.831   7.743 -0.1533  0.1593  1.4982
13614SOL     OW42835   7.153   3.309   4.540  0.3292  0.2236 -0.7292
13614SOL    HW142836   7.132   3.313   4.447 -1.5835 -1.1534 -0.4268
13614SOL    HW242837   7.133   3.218   4.565  1.3579  0.4031  0.9064
13615SOL     OW42838   5.504   7.683   3.156  0.1672 -0.5866  0.0422
13615SOL    HW142839   5.502   7.671   3.251  0.4862 -1.8136 -0.0778
13615SOL    HW242840   5.431   7.630   3.123  1.6732 -2.4493 -0.5492
13616SOL     OW42841   4.640   8.787   8.837 -0.1547 -0.4389 -0.3226
13616SOL    HW142842   4.581   8.849   8.795  0.1334  2.0805  2.6523
13616SOL    HW242843   4.721   8.793   8.787  0.0742  2.1899  0.2282
13617SOL     OW42844   1.873   6.957   3.406  0.1278  0.4732  0.3824
13617SOL    HW142845   1.928   6.906   3.346  0.9573  0.8235  0.8177
13617SOL    HW242846   1.887   7.048   3.380  0.5685  0.6344  1.1546
13618SOL     OW42847   8.631   2.353   2.959 -0.3911 -0.0751 -0.1609
13618SOL    HW142848   8.567   2.285   2.983 -1.2977  0.8881  0.2208
13618SOL    HW242849   8.643   2.404   3.039 -0.8491  1.1042 -0.8156
13619SOL     OW42850   5.550   2.021   7.173  0.4900  0.0765 -0.2769
13619SOL    HW142851   5.581   2.109   7.154  0.1805  0.8448  2.3772
13619SOL    HW242852   5.468   2.034   7.221  0.1453 -1.6883 -0.2968
13620SOL     OW42853   7.501   4.992   5.044 -0.2371 -0.4942 -0.3474
13620SOL    HW142854   7.582   4.960   5.006  0.3500  0.8442 -0.2867
13620SOL    HW242855   7.458   5.039   4.972  0.9597  2.2007  0.5550
13621SOL     OW42856   8.218   0.861   4.153  0.0987  0.3669  0.1382
13621SOL    HW142857   8.127   0.847   4.178 -0.6680  1.8915 -1.5956
13621SOL    HW242858   8.237   0.950   4.182  0.5000  0.6538 -0.9811
13622SOL     OW42859   0.180   1.571   3.787  0.3691 -0.0121 -0.1427
13622SOL    HW142860   0.250   1.507   3.803 -0.8750 -2.5567 -3.5450
13622SOL    HW242861   0.108   1.542   3.843  0.7214  0.1509  0.4006
13623SOL     OW42862   4.269   5.082   5.033 -0.2790 -0.2604  0.5704
13623SOL    HW142863   4.294   5.051   4.946 -2.2869  0.7782 -0.4476
13623SOL    HW242864   4.331   5.151   5.052  0.3887 -0.7213  0.1142
13624SOL     OW42865   2.904   3.459   4.834  0.4999  0.8014 -0.5444
13624SOL    HW142866   2.966   3.529   4.814  0.8141  1.2497  1.7249
13624SOL    HW242867   2.818   3.498   4.816  0.6626  1.8260  0.7647
13625SOL     OW42868   2.891   8.192   6.539  0.0741  0.1758  0.2213
13625SOL    HW142869   2.848   8.154   6.462 -0.7347 -0.3837  0.9304
13625SOL    HW242870   2.877   8.128   6.608  0.4584  0.8471  0.9356
13626SOL     OW42871   5.662   8.704   0.395  0.0218  0.4739  0.4599
13626SOL    HW142872   5.746   8.666   0.418 -0.5306 -0.6269  0.7238
13626SOL    HW242873   5.605   8.629   0.379 -0.9268  1.1960  0.3494
13627SOL     OW42874   0.488   7.094   3.146 -0.3420  0.1338 -0.1655
13627SOL    HW142875   0.491   7.175   3.095  0.1618  0.2859  0.0925
13627SOL    HW242876   0.544   7.033   3.098  1.1456  0.6606  0.8209
13628SOL     OW42877   0.443   7.430   0.164  0.0544 -0.3864  0.4862
13628SOL    HW142878   0.393   7.446   0.244  0.9424  1.1042  0.7970
13628SOL    HW242879   0.524   7.390   0.194 -0.3186 -1.4320  0.1347
13629SOL     OW42880   7.533   8.304   7.874  0.3895 -0.2423 -0.5792
13629SOL    HW142881   7.457   8.254   7.844  0.3869 -0.1556 -0.7186
13629SOL    HW242882   7.597   8.237   7.899  0.4050 -0.3159 -0.8133
13630SOL     OW42883   5.463   2.572   3.089  0.1147  0.0082 -0.6292
13630SOL    HW142884   5.515   2.649   3.067  1.0354 -0.7929 -1.3222
13630SOL    HW242885   5.495   2.504   3.030  0.6069 -1.4053  1.1775
13631SOL     OW42886   7.583   1.822   1.919  0.0620  0.7741  0.1123
13631SOL    HW142887   7.657   1.765   1.901 -0.1834  0.6653 -0.6146
13631SOL    HW242888   7.618   1.891   1.976  1.0114  1.3677 -1.1321
13632SOL     OW42889   3.730   1.840   1.165  0.2039 -0.1656 -0.7244
13632SOL    HW142890   3.673   1.801   1.099  1.3519 -0.8769 -1.3253
13632SOL    HW242891   3.715   1.788   1.244 -0.3894  0.0138 -0.7134
13633SOL     OW42892   6.213   7.248   7.273  0.3701  0.4143 -0.0379
13633SOL    HW142893   6.264   7.329   7.275  0.8485  0.0980  0.8255
13633SOL    HW242894   6.268   7.184   7.317 -0.9392  0.1614  1.2854
13634SOL     OW42895   0.450   2.683   3.613  0.6555 -0.0996 -0.1929
13634SOL    HW142896   0.500   2.641   3.543  2.1019  0.8208  0.2276
13634SOL    HW242897   0.379   2.622   3.631 -0.0351 -0.1691 -2.7365
13635SOL     OW42898   2.520   6.865   8.497 -0.2671  0.1898 -0.3974
13635SOL    HW142899   2.448   6.882   8.437  0.9795 -1.0587 -2.3761
13635SOL    HW242900   2.568   6.793   8.456  1.6550  0.4681  1.2341
13636SOL     OW42901   0.180   6.757   5.430  0.5877  0.3086  0.2617
13636SOL    HW142902   0.176   6.807   5.348  4.4988  0.2566 -0.1498
13636SOL    HW242903   0.273   6.748   5.448 -0.0509  0.4632  4.8708
13637SOL     OW42904   6.397   2.669   4.955  0.1495  0.5283  0.3980
13637SOL    HW142905   6.447   2.736   4.908 -0.4475  0.1232 -0.8690
13637SOL    HW242906   6.380   2.708   5.041  0.5070  1.6657 -0.0183
13638SOL     OW42907   5.738   7.485   7.640 -0.3025 -0.5105 -0.1894
13638SOL    HW142908   5.651   7.486   7.599 -1.0252  1.3716  1.2706
13638SOL    HW242909   5.783   7.560   7.601 -0.7807  0.9250  1.8474
13639SOL     OW42910   6.919   3.611   3.185  0.3051 -0.6427  0.7262
13639SOL    HW142911   6.994   3.671   3.185  0.5553 -0.9372 -0.1407
13639SOL    HW242912   6.957   3.525   3.167 -0.2317 -0.8010  0.3165
13640SOL     OW42913   0.133   1.472   7.991 -0.3055 -0.1214  0.0392
13640SOL    HW142914   0.163   1.445   7.904  1.7039 -0.0928  0.6758
13640SOL    HW242915   0.063   1.410   8.012  0.5964 -1.4774 -0.7633
13641SOL     OW42916   4.822   2.098   1.537 -0.0302  0.4443  0.4697
13641SOL    HW142917   4.771   2.029   1.579  1.6344  0.4853  2.7825
13641SOL    HW242918   4.759   2.166   1.514 -1.1548  0.0171  2.1818
13642SOL     OW42919   7.699   5.123   0.808  0.0158 -0.4116  0.0963
13642SOL    HW142920   7.678   5.124   0.715  1.1624  0.7033 -0.1720
13642SOL    HW242921   7.688   5.214   0.837  0.1400 -0.6536  0.9472
13643SOL     OW42922   8.508   5.595   7.945  1.0155 -0.1834  0.2126
13643SOL    HW142923   8.482   5.641   7.866  1.8085 -0.3914 -0.1804
13643SOL    HW242924   8.604   5.597   7.943  1.0472 -0.8905  0.7548
13644SOL     OW42925   1.284   3.481   4.274  0.3060 -0.1441 -0.2505
13644SOL    HW142926   1.254   3.458   4.187  0.2383 -0.0973 -0.2398
13644SOL    HW242927   1.203   3.502   4.322  0.4272  0.9400 -0.4994
13645SOL     OW42928   1.447   2.755   5.599  0.2552  0.1005 -0.0910
13645SOL    HW142929   1.491   2.715   5.524  0.8380  0.7619 -0.1080
13645SOL    HW242930   1.480   2.707   5.675  0.5088  0.1533 -0.1659
13646SOL     OW42931   5.803   7.121   2.330 -0.0777 -0.1882  0.0518
13646SOL    HW142932   5.774   7.191   2.272  1.1749 -0.1994 -0.6186
13646SOL    HW242933   5.767   7.041   2.291 -1.0799  0.0130  0.5352
13647SOL     OW42934   1.178   4.432   5.793  0.4293  0.0891 -0.4077
13647SOL    HW142935   1.093   4.410   5.830  0.4805  0.5779  0.0180
13647SOL    HW242936   1.160   4.501   5.729  0.7075  1.7822  1.2151
13648SOL     OW42937   4.193   0.941   5.401  0.6243 -0.5552 -0.0237
13648SOL    HW142938   4.170   0.873   5.337 -0.1235 -0.8348  0.5314
13648SOL    HW242939   4.211   1.019   5.347 -0.6974 -0.5910 -0.5601
13649SOL     OW42940   8.821   4.162   4.563 -0.4643  0.2774  0.4030
13649SOL    HW142941   8.890   4.191   4.503  0.6782 -0.2003  1.4553
13649SOL    HW242942   8.805   4.237   4.620 -0.2941  0.1332  0.6374
13650SOL     OW42943   3.462   7.714   2.966  0.5572  0.0339  0.9336
13650SOL    HW142944   3.428   7.649   3.029 -1.2490 -0.0063  0.0006
13650SOL    HW242945   3.472   7.664   2.885  2.7895  0.1048  1.1209
13651SOL     OW42946   5.584   4.441   4.033 -0.4900 -0.0293 -0.2875
13651SOL    HW142947   5.535   4.480   4.105  0.4478 -1.0656  0.9572
13651SOL    HW242948   5.572   4.347   4.045  0.2459 -0.2360 -1.0920
13652SOL     OW42949   7.779   7.798   7.857  0.3695 -0.4689  0.3199
13652SOL    HW142950   7.762   7.730   7.792  0.7949 -0.5459  0.2904
13652SOL    HW242951   7.748   7.760   7.939 -1.6650  0.2273 -0.0594
13653SOL     OW42952   4.164   8.330   8.152 -0.0911 -0.4918 -0.2343
13653SOL    HW142953   4.128   8.360   8.236 -1.7269  0.5778 -1.2360
13653SOL    HW242954   4.094   8.350   8.088  1.9630  0.8712 -2.2058
13654SOL     OW42955   5.511   1.562   2.507  0.4239 -0.0815  0.2872
13654SOL    HW142956   5.525   1.655   2.522 -1.1363 -0.0128  1.4954
13654SOL    HW242957   5.446   1.558   2.437 -0.0716 -0.2538  0.7573
13655SOL     OW42958   6.467   1.851   6.752  0.4162  0.1682 -0.2651
13655SOL    HW142959   6.427   1.854   6.838 -0.1329  0.0083 -0.5102
13655SOL    HW242960   6.437   1.931   6.709  2.0462  1.1172  0.2674
13656SOL     OW42961   2.432   6.691   7.670 -0.1762 -0.1374  0.1721
13656SOL    HW142962   2.489   6.624   7.707  1.6277  0.4038 -1.4533
13656SOL    HW242963   2.344   6.655   7.676  0.5173 -1.7277  1.2408
13657SOL     OW42964   0.156   6.437   5.808 -0.0899 -0.5607  0.1692
13657SOL    HW142965   0.212   6.514   5.819 -0.9148 -0.2109  2.8006
13657SOL    HW242966   0.212   6.363   5.831  0.4088 -0.6728 -1.3248
13658SOL     OW42967   2.496   5.644   2.873 -0.1267 -0.2881  0.2796
13658SOL    HW142968   2.526   5.576   2.813 -0.4636  0.0604 -0.2905
13658SOL    HW242969   2.405   5.660   2.848  0.6002  2.0479 -1.1919
13659SOL     OW42970   1.121   6.709   7.274 -0.0888  0.5150  0.0483
13659SOL    HW142971   1.147   6.661   7.353  0.4604 -1.5042 -1.2818
13659SOL    HW242972   1.151   6.799   7.290 -0.8425  0.4035  2.4915
13660SOL     OW42973   7.059   0.684   3.028 -0.0496  0.1069 -0.1246
13660SOL    HW142974   6.993   0.751   3.013  0.1957  0.6408  1.0388
13660SOL    HW242975   7.039   0.650   3.116  1.5036  0.6547  0.4850
13661SOL     OW42976   3.707   8.125   2.539  0.2952 -0.5962 -0.1878
13661SOL    HW142977   3.720   8.183   2.464  0.9175 -1.3933 -0.7128
13661SOL    HW242978   3.792   8.121   2.582 -0.3939  0.9959  1.4397
13662SOL     OW42979   2.231   7.344   2.784 -0.2054  0.1536  0.0225
13662SOL    HW142980   2.165   7.277   2.765 -0.3359 -0.2373  1.6899
13662SOL    HW242981   2.180   7.417   2.820  0.0529  0.7185 -0.7486
13663SOL     OW42982   8.252   6.903   0.570 -0.6359 -0.2043 -0.1610
13663SOL    HW142983   8.238   6.892   0.664 -3.1291  0.8139 -0.3399
13663SOL    HW242984   8.290   6.820   0.542 -0.5875 -0.8322  1.6132
13664SOL     OW42985   4.669   4.721   6.511  0.6853 -0.7023 -0.2903
13664SOL    HW142986   4.615   4.654   6.553  1.3223 -1.0989 -0.0987
13664SOL    HW242987   4.607   4.791   6.489 -0.2015 -1.7926 -1.4662
13665SOL     OW42988   4.745   2.978   1.193  0.6389  0.0352 -0.3359
13665SOL    HW142989   4.730   2.997   1.286 -1.2184  1.8206 -0.9279
13665SOL    HW242990   4.827   2.929   1.192  1.8951  1.8245  2.0764
13666SOL     OW42991   5.672   8.378   8.799  0.7049 -0.3720 -0.5983
13666SOL    HW142992   5.697   8.398   8.709 -0.7998  0.5712 -0.8470
13666SOL    HW242993   5.675   8.463   8.844 -0.8759 -0.3948 -0.3871
13667SOL     OW42994   6.852   8.802   3.408  0.0120  0.4600  0.4716
13667SOL    HW142995   6.863   8.877   3.466  0.1264 -0.1961  1.3315
13667SOL    HW242996   6.796   8.742   3.457 -0.8172  0.3619 -0.5762
13668SOL     OW42997   8.034   0.755   0.805 -0.2152  0.2020  0.0923
13668SOL    HW142998   8.058   0.740   0.714 -0.3385 -0.7274  0.1961
13668SOL    HW242999   7.967   0.823   0.802  0.3521  0.7523 -0.4346
13669SOL     OW43000   0.838   2.464   3.647  0.3382  0.4139 -0.1681
13669SOL    HW143001   0.836   2.455   3.552 -2.4977  1.6751 -0.3336
13669SOL    HW243002   0.748   2.445   3.675  1.0101  0.4357  2.2291
13670SOL     OW43003   6.176   2.802   7.078 -0.3341 -0.4023  0.1806
13670SOL    HW143004   6.265   2.766   7.072  0.0826  0.4243  1.1198
13670SOL    HW243005   6.121   2.727   7.099 -0.0654 -1.1480 -1.6128
13671SOL     OW43006   7.734   6.667   4.820 -0.3499 -0.6446 -0.3738
13671SOL    HW143007   7.823   6.657   4.855 -0.7634  0.8793  1.2037
13671SOL    HW243008   7.681   6.608   4.874 -0.7709  0.7241  0.7512
13672SOL     OW43009   7.411   5.287   1.082 -0.3751  0.4240 -0.0017
13672SOL    HW143010   7.325   5.321   1.059  0.0533  1.9697  0.5506
13672SOL    HW243011   7.441   5.240   1.004 -1.9411 -0.6709  0.0083
13673SOL     OW43012   6.737   2.245   8.636 -0.3610 -0.3502 -0.6130
13673SOL    HW143013   6.707   2.317   8.691  0.2630 -0.0018 -0.7234
13673SOL    HW243014   6.719   2.166   8.688 -0.5464 -0.0791 -0.2665
13674SOL     OW43015   5.880   5.861   6.837 -0.0488 -0.7212  0.1569
13674SOL    HW143016   5.912   5.780   6.797  2.4219  0.5155 -0.5555
13674SOL    HW243017   5.956   5.898   6.880 -0.5585  2.2471 -1.2617
13675SOL     OW43018   5.592   1.612   6.734  0.1650 -0.0341  0.3050
13675SOL    HW143019   5.590   1.705   6.753 -0.6916  0.4165 -1.7548
13675SOL    HW243020   5.607   1.607   6.640 -2.6962 -1.8689 -0.1675
13676SOL     OW43021   8.669   7.385   7.463  0.0624  0.1874  0.4453
13676SOL    HW143022   8.735   7.398   7.532  0.5883  2.6813 -0.4322
13676SOL    HW243023   8.589   7.363   7.511  1.0623 -1.0139  1.6456
13677SOL     OW43024   0.269   1.190   2.452 -0.2266 -0.5866  0.5824
13677SOL    HW143025   0.176   1.197   2.431 -0.3645  1.8802  1.7074
13677SOL    HW243026   0.276   1.220   2.543  1.8095  0.3532  0.1784
13678SOL     OW43027   5.968   0.990   5.802  0.0970  0.3147 -0.0350
13678SOL    HW143028   5.982   0.901   5.769 -2.8618 -0.6183  0.8801
13678SOL    HW243029   5.891   0.983   5.859 -1.5381  3.8122 -1.4851
13679SOL     OW43030   7.070   1.988   3.354  0.2175  0.1545 -0.0173
13679SOL    HW143031   7.110   1.935   3.423 -1.3389 -2.3823 -0.9244
13679SOL    HW243032   6.976   1.971   3.362  0.0376 -1.2115 -3.3770
13680SOL     OW43033   2.310   4.995   0.561 -0.1999  0.2380 -0.2476
13680SOL    HW143034   2.399   4.995   0.526 -0.3733  0.1439 -0.6926
13680SOL    HW243035   2.322   5.009   0.655  0.2253  1.2496 -0.4359
13681SOL     OW43036   6.163   6.571   7.724 -0.5279  0.1438  0.4116
13681SOL    HW143037   6.188   6.484   7.755  0.5660  0.3717  0.2305
13681SOL    HW243038   6.101   6.554   7.653 -0.4178 -0.4932  0.4582
13682SOL     OW43039   8.209   7.574   3.498  0.3624 -0.4710 -0.1488
13682SOL    HW143040   8.142   7.526   3.449  1.3985 -1.7649 -0.3792
13682SOL    HW243041   8.240   7.511   3.563  1.8824 -0.1736 -0.5500
13683SOL     OW43042   6.723   0.633   5.514 -0.0060  0.7701  0.4805
13683SOL    HW143043   6.679   0.561   5.469  0.4895  0.9020 -0.2522
13683SOL    HW243044   6.669   0.709   5.496 -0.9030  0.4819  1.8347
13684SOL     OW43045   2.285   3.349   7.378 -0.1630  0.2928 -0.4367
13684SOL    HW143046   2.256   3.271   7.425  1.6722 -0.1663  0.0218
13684SOL    HW243047   2.285   3.418   7.444  0.2460  0.1692 -0.3011
13685SOL     OW43048   8.598   7.438   4.917 -0.3724 -0.1191  0.3010
13685SOL    HW143049   8.506   7.456   4.938 -0.8883 -0.3871 -1.5983
13685SOL    HW243050   8.613   7.484   4.834  0.1045 -3.0468 -1.3640
13686SOL     OW43051   4.336   7.830   3.191 -0.1404 -0.1424 -0.1794
13686SOL    HW143052   4.332   7.905   3.132 -2.1600  0.7370  0.9729
13686SOL    HW243053   4.247   7.796   3.193  0.0908 -0.7471  1.6063
13687SOL     OW43054   4.793   5.695   3.498  0.0815  0.2315  0.3038
13687SOL    HW143055   4.849   5.701   3.575 -1.3429 -1.7144  1.5831
13687SOL    HW243056   4.734   5.770   3.505 -0.8586 -0.6156  1.8456
13688SOL     OW43057   4.767   8.667   4.367  0.4142 -0.2100  0.7165
13688SOL    HW143058   4.855   8.705   4.370 -0.1703  1.5452 -1.9135
13688SOL    HW243059   4.710   8.740   4.343 -1.1361 -2.1618 -2.0058
13689SOL     OW43060   4.811   0.248   0.535  0.0971 -0.3903 -0.3786
13689SOL    HW143061   4.715   0.242   0.533  0.1710 -2.1653 -0.5090
13689SOL    HW243062   4.834   0.225   0.625  0.3791  1.1115 -0.0417
13690SOL     OW43063   6.190   1.389   6.106 -0.3785 -0.3149  0.4756
13690SOL    HW143064   6.115   1.350   6.060  0.8427 -1.3697 -0.6724
13690SOL    HW243065   6.223   1.455   6.045  0.2518 -0.5787  0.5229
13691SOL     OW43066   3.701   5.156   5.975  0.4708 -0.0817  0.1868
13691SOL    HW143067   3.719   5.068   5.943  0.3496 -0.9611  2.3756
13691SOL    HW243068   3.623   5.185   5.927  0.4099 -1.2289 -0.4205
13692SOL     OW43069   3.081   5.734   0.403 -0.2562  0.5449 -0.0409
13692SOL    HW143070   3.111   5.747   0.493 -0.8927  0.6281  0.1592
13692SOL    HW243071   3.080   5.822   0.365 -0.8941  0.6307  0.1610
13693SOL     OW43072   3.925   8.632   8.847 -0.1271  0.1329  0.0475
13693SOL    HW143073   3.871   8.553   8.858  0.9561 -0.5291  0.8565
13693SOL    HW243074   4.013   8.599   8.829  0.5286  1.1137  1.2623
13694SOL     OW43075   8.714   2.011   6.135  0.1611  0.3055 -0.2315
13694SOL    HW143076   8.788   2.033   6.078 -0.0469 -1.3590 -1.2046
13694SOL    HW243077   8.705   1.916   6.128 -1.8098  0.4141  0.2063
13695SOL     OW43078   4.514   1.312   5.477 -0.0783  0.4192 -0.1349
13695SOL    HW143079   4.550   1.241   5.423 -1.1357  0.6951 -1.2553
13695SOL    HW243080   4.588   1.371   5.490  0.9877 -1.1517  1.3611
13696SOL     OW43081   8.306   0.503   4.654  0.0278 -0.0994 -0.4198
13696SOL    HW143082   8.285   0.549   4.573  2.1524 -0.5394 -1.2778
13696SOL    HW243083   8.266   0.417   4.644  0.4013 -0.2035 -1.0907
13697SOL     OW43084   1.170   6.593   2.611 -0.1971 -0.8402 -0.5718
13697SOL    HW143085   1.192   6.608   2.703  0.4751 -0.2734 -0.8126
13697SOL    HW243086   1.254   6.604   2.565 -0.8623  0.7976 -1.4714
13698SOL     OW43087   1.872   4.094   8.273  0.8562  0.2635  0.3380
13698SOL    HW143088   1.847   4.085   8.365 -0.7539 -0.9673 -0.1809
13698SOL    HW243089   1.891   4.005   8.244 -2.7361 -0.0873 -1.5369
13699SOL     OW43090   2.891   0.885   8.767 -0.1790 -0.3028 -0.0144
13699SOL    HW143091   2.922   0.975   8.760 -0.4071 -0.0322  1.8857
13699SOL    HW243092   2.796   0.891   8.759 -0.1237 -0.5375 -1.0030
13700SOL     OW43093   6.212   4.970   2.770  0.4422  0.4071 -0.2781
13700SOL    HW143094   6.303   4.989   2.749  0.7341  0.6041  1.1054
13700SOL    HW243095   6.194   5.019   2.850 -0.9341  0.5116 -0.6182
13701SOL     OW43096   4.212   7.035   4.400  0.1964  0.0058  0.3454
13701SOL    HW143097   4.167   6.962   4.358  1.2777 -0.1700 -0.5457
13701SOL    HW243098   4.165   7.048   4.482  0.9037 -2.7060  1.2750
13702SOL     OW43099   7.389   4.993   4.038  0.2088  0.2383  0.1873
13702SOL    HW143100   7.434   5.077   4.050  0.9623 -0.2271  0.7555
13702SOL    HW243101   7.326   5.009   3.968  0.6267  1.1678  0.0090
13703SOL     OW43102   7.575   6.045   1.738 -0.4016  0.1578  0.2781
13703SOL    HW143103   7.528   6.000   1.807 -0.1217 -1.4753 -0.5632
13703SOL    HW243104   7.517   6.042   1.662 -0.1170  0.6599  0.0304
13704SOL     OW43105   8.057   4.050   5.009  0.5424  0.1233  0.2556
13704SOL    HW143106   8.112   4.115   5.054  0.8730 -0.3201  0.4925
13704SOL    HW243107   8.120   3.986   4.974  0.2416  0.1241 -0.2919
13705SOL     OW43108   6.513   7.950   7.012  0.0783 -0.2077  0.0140
13705SOL    HW143109   6.495   7.892   7.086 -1.0168 -0.0041 -0.0814
13705SOL    HW243110   6.580   7.904   6.961 -0.6495 -1.3107  0.0279
13706SOL     OW43111   5.270   2.421   0.322 -0.4694 -0.0783  0.2945
13706SOL    HW143112   5.232   2.390   0.240 -1.2667 -0.0813  0.6544
13706SOL    HW243113   5.281   2.342   0.375 -1.2332  0.0779  0.6988
13707SOL     OW43114   4.470   0.021   1.913  0.1014  0.1678  0.1170
13707SOL    HW143115   4.473   0.011   2.008 -0.5940  1.9288  0.3716
13707SOL    HW243116   4.544   0.079   1.893 -0.2220  0.4485 -0.2935
13708SOL     OW43117   5.782   1.136   2.537  0.1827 -0.5150 -0.2129
13708SOL    HW143118   5.783   1.068   2.470 -3.6090  0.1315 -1.1850
13708SOL    HW243119   5.758   1.216   2.490  1.7253  0.9339  1.3233
13709SOL     OW43120   7.467   2.284   4.635 -0.1878 -0.4440 -0.4409
13709SOL    HW143121   7.543   2.332   4.668 -0.9103 -0.4236  1.2806
13709SOL    HW243122   7.471   2.199   4.680 -0.3462 -1.0349 -1.5152
13710SOL     OW43123   2.447   5.612   4.621 -0.2445  0.0080  0.6244
13710SOL    HW143124   2.483   5.671   4.687 -1.1582  0.2177  0.9541
13710SOL    HW243125   2.386   5.667   4.571 -1.7100 -0.8131  1.4413
13711SOL     OW43126   5.123   8.391   5.983  0.0793  0.8341  0.3137
13711SOL    HW143127   5.187   8.406   6.053 -0.8982  1.7596  1.0554
13711SOL    HW243128   5.121   8.474   5.935  0.7845  0.1827 -0.8752
13712SOL     OW43129   6.004   1.995   2.478 -0.7294 -0.0948  0.3016
13712SOL    HW143130   5.954   2.071   2.507 -0.3957 -0.3449  1.6055
13712SOL    HW243131   6.075   1.987   2.542  0.3660 -0.3712 -0.9168
13713SOL     OW43132   8.815   5.816   7.095 -0.9368  0.1919 -0.1138
13713SOL    HW143133   8.773   5.730   7.089 -0.5677 -0.0213  0.3222
13713SOL    HW243134   8.792   5.849   7.181 -1.0426  0.5136 -0.2631
13714SOL     OW43135   3.906   7.442   0.259 -0.3306 -0.2267  0.1449
13714SOL    HW143136   3.997   7.431   0.234  0.0638  0.3695  1.2369
13714SOL    HW243137   3.871   7.506   0.197  0.3801  0.5709  0.5433
13715SOL     OW43138   1.196   1.418   6.524 -0.2166 -0.0652 -0.2743
13715SOL    HW143139   1.265   1.425   6.590  1.1249 -0.5935 -1.5675
13715SOL    HW243140   1.242   1.394   6.443 -1.8020  0.5638 -1.4161
13716SOL     OW43141   5.184   7.419   0.354 -0.2831 -0.0887 -0.4077
13716SOL    HW143142   5.268   7.407   0.309 -0.3791 -1.5916 -0.2266
13716SOL    HW243143   5.201   7.488   0.417  0.4096  0.6390 -1.3547
13717SOL     OW43144   5.820   4.533   3.875 -0.3356 -0.3000  0.2859
13717SOL    HW143145   5.758   4.488   3.933  0.1587 -1.2405  0.1028
13717SOL    HW243146   5.813   4.625   3.899  0.0458 -0.6960  2.0425
13718SOL     OW43147   1.122   6.717   8.697  0.0905 -0.5645  0.1703
13718SOL    HW143148   1.052   6.653   8.707  0.3700 -0.9115 -0.0806
13718SOL    HW243149   1.102   6.762   8.615 -0.3220 -0.0600  0.5455
13719SOL     OW43150   8.602   4.900   2.681  0.5490 -0.5300  0.2264
13719SOL    HW143151   8.621   4.830   2.743  0.9547 -1.0996 -0.5181
13719SOL    HW243152   8.537   4.863   2.622  1.8540 -0.8485 -1.0818
13720SOL     OW43153   6.383   1.551   7.770 -0.5176 -0.0195 -0.9747
13720SOL    HW143154   6.327   1.488   7.816 -0.6870  0.7144 -0.1448
13720SOL    HW243155   6.469   1.541   7.812 -0.7987  1.0120 -0.1282
13721SOL     OW43156   3.172   6.870   3.462 -0.0613  0.1978 -0.2183
13721SOL    HW143157   3.131   6.954   3.441 -0.0381  0.3201  0.2261
13721SOL    HW243158   3.194   6.876   3.555 -0.8981 -0.6465  0.0556
13722SOL     OW43159   2.906   8.640   3.805 -0.2921  0.4602 -0.0699
13722SOL    HW143160   2.979   8.581   3.787 -0.8682  0.2518 -1.9375
13722SOL    HW243161   2.918   8.667   3.896  1.8317  0.0706 -0.2010
13723SOL     OW43162   3.465   3.655   4.728 -0.0264 -0.1517 -0.1423
13723SOL    HW143163   3.506   3.612   4.803  1.8689 -0.3171 -1.2247
13723SOL    HW243164   3.528   3.645   4.657 -1.0592  1.4094 -1.3434
13724SOL     OW43165   8.277   4.121   6.513  0.0304  0.4241  0.1333
13724SOL    HW143166   8.340   4.133   6.442  0.6568  0.1645  0.6321
13724SOL    HW243167   8.324   4.068   6.578 -1.4888 -1.9492 -0.5512
13725SOL     OW43168   3.569   8.121   8.320  0.0785  0.0402 -0.0841
13725SOL    HW143169   3.484   8.083   8.298 -0.1293  0.9865 -1.0468
13725SOL    HW243170   3.610   8.058   8.379 -1.2443 -0.4829  0.3108
13726SOL     OW43171   2.414   1.389   4.544  0.1274 -0.8796  0.3840
13726SOL    HW143172   2.449   1.452   4.481  1.2980 -1.9284 -0.0624
13726SOL    HW243173   2.481   1.321   4.549 -0.7295 -1.6783  1.4780
13727SOL     OW43174   2.790   1.199   4.136  0.3531  0.4126 -0.4475
13727SOL    HW143175   2.757   1.146   4.064  1.0110  0.6779 -0.9502
13727SOL    HW243176   2.721   1.263   4.153  0.5784  0.9376 -1.4560
13728SOL     OW43177   5.034   4.192   5.285  0.3033 -0.0127  0.3206
13728SOL    HW143178   5.127   4.186   5.307  0.1600  1.1218  1.3487
13728SOL    HW243179   4.991   4.132   5.345  0.2225  0.7616  1.0630
13729SOL     OW43180   6.531   5.556   8.702  0.2366 -0.5226  0.2456
13729SOL    HW143181   6.573   5.597   8.626  2.7281 -0.1689  1.6899
13729SOL    HW243182   6.440   5.584   8.697  0.4480 -0.0212 -2.2436
13730SOL     OW43183   1.978   8.587   2.269  0.7029 -0.9535 -0.1039
13730SOL    HW143184   1.887   8.616   2.268  0.7611 -0.7795 -0.4722
13730SOL    HW243185   2.028   8.665   2.247  0.9812 -0.9228  0.5944
13731SOL     OW43186   2.680   8.391   6.301  0.3381 -0.0005  0.0872
13731SOL    HW143187   2.661   8.412   6.393 -1.5643 -1.1917  0.0271
13731SOL    HW243188   2.728   8.308   6.305  2.0557  0.9612  0.0578
13732SOL     OW43189   6.305   2.104   2.151 -0.0304  0.2740  0.2245
13732SOL    HW143190   6.358   2.124   2.074  1.4693 -2.6145  0.3888
13732SOL    HW243191   6.366   2.069   2.215 -1.7354 -0.7798  1.3827
13733SOL     OW43192   7.446   2.408   4.330 -0.1500  0.0636 -0.6629
13733SOL    HW143193   7.395   2.358   4.266 -0.1929  0.5430 -1.0028
13733SOL    HW243194   7.482   2.341   4.388 -2.5216 -0.2224  0.6239
13734SOL     OW43195   0.670   1.405   5.637  0.1221 -0.3306  0.3538
13734SOL    HW143196   0.694   1.435   5.724 -0.6074  0.3220  0.3330
13734SOL    HW243197   0.585   1.363   5.649 -0.2907  0.3492 -0.1535
13735SOL     OW43198   5.518   8.382   1.808  0.8164 -0.7463  0.2873
13735SOL    HW143199   5.576   8.453   1.781  2.9926 -3.4021 -2.8268
13735SOL    HW243200   5.445   8.385   1.747  0.1431 -0.3795  1.0837
13736SOL     OW43201   5.759   7.082   7.903  0.7702  0.6540  0.2038
13736SOL    HW143202   5.822   7.022   7.864 -0.1136  0.8835 -1.6974
13736SOL    HW243203   5.791   7.169   7.882  0.3293  0.7871  0.0584
13737SOL     OW43204   0.948   3.497   4.024 -0.0183 -0.6146  0.3467
13737SOL    HW143205   0.869   3.530   3.982 -0.3705 -2.4630 -0.5446
13737SOL    HW243206   0.939   3.523   4.116  0.0461  2.1858 -0.3647
13738SOL     OW43207   6.451   6.825   2.173  0.8162  0.3423  0.5745
13738SOL    HW143208   6.401   6.863   2.101 -1.5128 -0.1336  1.8268
13738SOL    HW243209   6.518   6.771   2.130 -0.7990 -0.3381 -1.2663
13739SOL     OW43210   5.114   8.207   7.304  0.0505 -0.4356 -0.3629
13739SOL    HW143211   5.044   8.166   7.355  0.7120  0.4759  1.3679
13739SOL    HW243212   5.076   8.290   7.274  0.7784  0.7889  1.8687
13740SOL     OW43213   6.837   4.383   1.652  0.0572  0.8205 -0.7337
13740SOL    HW143214   6.915   4.437   1.660  0.5335 -0.0212  0.6740
13740SOL    HW243215   6.810   4.393   1.561  1.7905  1.1532 -1.2397
13741SOL     OW43216   7.868   7.910   3.230 -0.0601  0.1941 -0.1189
13741SOL    HW143217   7.884   7.820   3.259 -0.5445 -0.6514 -2.2810
13741SOL    HW243218   7.941   7.960   3.265  0.6819 -1.2073  0.4232
13742SOL     OW43219   1.466   8.455   6.321  0.2413 -0.0043 -0.4129
13742SOL    HW143220   1.462   8.543   6.284 -2.1746  0.3353  0.5122
13742SOL    HW243221   1.518   8.464   6.401  1.1907  0.2434 -1.0284
13743SOL     OW43222   1.579   6.313   2.896 -0.4580  0.1723  0.0142
13743SOL    HW143223   1.484   6.306   2.890 -0.5199  0.7413  0.2841
13743SOL    HW243224   1.595   6.345   2.985  0.0032 -0.2353  0.0814
13744SOL     OW43225   7.622   4.379   0.901  0.2445  0.4718  0.0885
13744SOL    HW143226   7.657   4.326   0.973  2.0639  1.5051  0.0320
13744SOL    HW243227   7.676   4.355   0.826  0.4558  1.6720 -0.1631
13745SOL     OW43228   7.052   7.737   3.651 -0.1663 -0.6453 -0.0534
13745SOL    HW143229   7.097   7.783   3.722  2.0086 -0.9112 -1.1512
13745SOL    HW243230   7.056   7.644   3.676 -0.6343 -0.6169  0.1247
13746SOL     OW43231   2.556   3.372   8.498  0.1114  0.1170 -0.8533
13746SOL    HW143232   2.640   3.411   8.474 -0.4553  0.8108 -1.8079
13746SOL    HW243233   2.519   3.431   8.564  1.2852 -1.3292  1.1985
13747SOL     OW43234   8.435   4.844   0.594 -0.2303 -0.5324 -0.7475
13747SOL    HW143235   8.464   4.763   0.552 -1.0128 -1.5333  0.5545
13747SOL    HW243236   8.498   4.910   0.566  0.9930 -1.7978 -1.0899
13748SOL     OW43237   6.347   1.874   1.966  0.6525 -0.6887 -0.0390
13748SOL    HW143238   6.255   1.876   1.992  0.7732  0.5969  0.3542
13748SOL    HW243239   6.391   1.933   2.028  1.7996 -1.5203 -0.0255
13749SOL     OW43240   0.964   3.181   7.161 -0.1514 -0.0299 -0.1323
13749SOL    HW143241   0.949   3.087   7.151  0.6092 -0.3635  1.5827
13749SOL    HW243242   1.040   3.199   7.106  0.1403 -0.5659  0.0840
13750SOL     OW43243   7.781   6.005   0.896  0.3457  0.3043  0.2800
13750SOL    HW143244   7.860   5.952   0.901  0.4482  0.4211 -0.0297
13750SOL    HW243245   7.808   6.092   0.925  0.4031  0.4167 -0.1059
13751SOL     OW43246   6.118   7.084   4.879 -0.1448  0.4115  0.3906
13751SOL    HW143247   6.058   7.082   4.805 -1.1935  1.6896  1.1530
13751SOL    HW243248   6.119   6.995   4.913 -0.2408 -0.0080 -0.6832
13752SOL     OW43249   3.667   3.977   5.899 -0.0024 -0.0626  0.4613
13752SOL    HW143250   3.719   4.053   5.871  0.3191 -0.1692  0.7568
13752SOL    HW243251   3.681   3.913   5.830  0.5587 -0.2214  0.7101
13753SOL     OW43252   5.457   2.000   8.501  0.1335 -0.1642 -0.0998
13753SOL    HW143253   5.379   1.964   8.459 -0.4449 -0.3745  1.0972
13753SOL    HW243254   5.485   1.931   8.562  0.9207  0.1356 -0.1090
13754SOL     OW43255   0.466   7.379   4.582 -0.4968 -0.2984  0.4179
13754SOL    HW143256   0.399   7.311   4.580  1.0729 -1.9080 -0.3688
13754SOL    HW243257   0.525   7.357   4.510  1.4189  0.4545  1.6728
13755SOL     OW43258   7.189   7.973   7.866  0.4159  0.7650  0.2672
13755SOL    HW143259   7.171   7.929   7.949 -0.8298 -0.1030 -0.4174
13755SOL    HW243260   7.127   8.046   7.864 -2.3481 -1.4521 -1.5160
13756SOL     OW43261   8.061   7.587   5.125  0.1987  0.4640 -0.4889
13756SOL    HW143262   8.025   7.643   5.194 -0.3188  0.0019 -0.3693
13756SOL    HW243263   8.155   7.602   5.128  0.4785 -1.0715  1.7557
13757SOL     OW43264   3.402   2.451   2.932 -0.2753 -0.4904 -0.5559
13757SOL    HW143265   3.320   2.424   2.890  0.5308  0.8414 -3.2247
13757SOL    HW243266   3.468   2.393   2.895  0.3347  0.0679 -0.3566
13758SOL     OW43267   2.088   0.300   3.519 -0.3644  0.2150  0.9753
13758SOL    HW143268   2.164   0.354   3.495  0.1785 -0.9752 -0.1313
13758SOL    HW243269   2.016   0.362   3.527  0.7114  1.3829  2.0682
13759SOL     OW43270   5.066   1.644   2.743 -0.4295  0.0130 -0.2995
13759SOL    HW143271   5.154   1.668   2.769 -0.2377 -1.4149  0.4225
13759SOL    HW243272   5.010   1.712   2.781  0.2469  0.3063  0.1825
13760SOL     OW43273   6.976   8.620   2.192 -0.1843 -0.4818  0.4152
13760SOL    HW143274   6.998   8.545   2.136 -1.9016 -1.2717  0.7250
13760SOL    HW243275   7.040   8.687   2.168 -0.2397 -1.1203 -1.8099
13761SOL     OW43276   3.531   2.197   8.410 -0.4282  0.4248  0.2580
13761SOL    HW143277   3.541   2.245   8.327  1.0514  0.1280  0.2479
13761SOL    HW243278   3.593   2.238   8.470 -1.2954  0.4586  1.1622
13762SOL     OW43279   8.855   0.110   0.335  0.5892  0.2326 -0.3100
13762SOL    HW143280   8.844   0.018   0.360  0.0339 -0.0304 -1.4851
13762SOL    HW243281   8.942   0.133   0.368  1.4175 -1.1824 -1.3683
13763SOL     OW43282   4.856   1.799   2.196  0.3731 -0.0830  0.2755
13763SOL    HW143283   4.923   1.863   2.171 -0.1845  0.5770  0.4314
13763SOL    HW243284   4.820   1.768   2.113  0.5933 -0.1374  0.2003
13764SOL     OW43285   7.023   2.337   2.679  0.5129 -0.4004 -0.0463
13764SOL    HW143286   7.059   2.263   2.629  1.6492  0.4097 -0.4499
13764SOL    HW243287   7.096   2.368   2.733 -0.2147 -0.1466  0.8235
13765SOL     OW43288   5.167   1.919   5.599  0.4681 -1.0144  0.0524
13765SOL    HW143289   5.190   1.876   5.682 -1.2720 -3.4098 -0.5949
13765SOL    HW243290   5.078   1.889   5.581  0.3741  0.3903 -2.1287
13766SOL     OW43291   8.395   0.953   8.034  0.1608  0.1166  0.0850
13766SOL    HW143292   8.371   0.864   8.008 -0.8066  0.1617  0.7555
13766SOL    HW243293   8.378   1.006   7.956 -0.1934 -0.1480 -0.0241
13767SOL     OW43294   0.963   6.930   6.618  0.2505  0.0640  0.4031
13767SOL    HW143295   0.941   6.836   6.616  0.6404 -0.0299 -1.7621
13767SOL    HW243296   0.964   6.956   6.526 -0.5155  2.3824  0.9862
13768SOL     OW43297   6.006   5.559   5.839  0.0944  0.3825  0.1320
13768SOL    HW143298   5.920   5.583   5.876 -0.6889 -1.2312 -0.5405
13768SOL    HW243299   5.999   5.465   5.821  1.2930  0.6154 -1.8655
13769SOL     OW43300   7.851   8.189   3.708 -0.4176 -0.1704 -0.1921
13769SOL    HW143301   7.852   8.230   3.795  0.4977 -1.7194  0.5699
13769SOL    HW243302   7.913   8.240   3.656  0.4154 -0.3337  0.6243
13770SOL     OW43303   5.148   2.614   5.477  0.3179  0.1891 -0.1371
13770SOL    HW143304   5.062   2.575   5.494  0.2060  0.6134  0.2871
13770SOL    HW243305   5.138   2.658   5.392 -0.2220  1.1586  0.4043
13771SOL     OW43306   0.508   1.688   3.004 -0.0148 -0.2066 -0.1510
13771SOL    HW143307   0.453   1.695   3.082 -1.7129 -1.1478 -1.1982
13771SOL    HW243308   0.455   1.725   2.934  0.8293 -0.8187 -1.1455
13772SOL     OW43309   6.600   3.649   6.507  0.5652 -0.0718  0.1834
13772SOL    HW143310   6.683   3.660   6.460 -0.3257  0.0811 -1.4111
13772SOL    HW243311   6.584   3.555   6.507 -1.1082  0.0841 -2.9817
13773SOL     OW43312   0.577   6.386   5.811  0.3613 -0.0379 -0.1126
13773SOL    HW143313   0.673   6.381   5.813  0.4928  2.1228  1.6454
13773SOL    HW243314   0.558   6.471   5.771 -0.7691  0.1787  0.8270
13774SOL     OW43315   1.367   8.100   6.923  0.2869  0.3206  0.6512
13774SOL    HW143316   1.272   8.085   6.917  0.3044 -0.1696  1.4620
13774SOL    HW243317   1.406   8.023   6.883  0.3470  0.0820  1.1643
13775SOL     OW43318   2.988   0.281   3.285 -0.4200 -0.2135  0.0982
13775SOL    HW143319   3.014   0.370   3.262  0.0079 -0.1089  0.9338
13775SOL    HW243320   3.064   0.227   3.263 -0.5124 -0.3078  0.0080
13776SOL     OW43321   8.185   1.297   8.011  0.5243  0.5164  0.4890
13776SOL    HW143322   8.197   1.371   8.069  2.2722  0.3042  0.4758
13776SOL    HW243323   8.129   1.329   7.941 -1.8419  0.7004  2.3468
13777SOL     OW43324   4.605   7.961   2.529 -0.2164  0.2753 -0.1295
13777SOL    HW143325   4.590   7.949   2.623 -2.1398  1.8231 -0.1749
13777SOL    HW243326   4.666   8.035   2.524 -1.5249  1.4273 -0.0443
13778SOL     OW43327   4.395   0.350   2.759 -0.0206  0.5477 -0.0853
13778SOL    HW143328   4.391   0.355   2.854  0.1563 -1.0373  0.0228
13778SOL    HW243329   4.484   0.323   2.739 -0.6127 -1.1604 -0.5714
13779SOL     OW43330   3.343   2.365   1.360 -0.8582  0.2125  0.1181
13779SOL    HW143331   3.391   2.287   1.332  0.6487  1.8367 -2.1688
13779SOL    HW243332   3.381   2.388   1.444  1.0069  0.2849 -0.6940
13780SOL     OW43333   8.712   6.423   7.731  0.3038 -0.3381 -0.3792
13780SOL    HW143334   8.725   6.346   7.676 -1.6266 -0.3206 -0.9550
13780SOL    HW243335   8.622   6.414   7.764  1.1021  0.0927  2.1041
13781SOL     OW43336   0.808   6.243   3.258 -0.1055 -0.2808  0.0974
13781SOL    HW143337   0.722   6.208   3.238  0.3851 -1.9727  0.8186
13781SOL    HW243338   0.818   6.318   3.198 -0.3786 -2.5401 -3.0122
13782SOL     OW43339   8.523   0.042   5.415  0.0605  0.4527  0.1944
13782SOL    HW143340   8.574   0.040   5.496  0.7178  0.0708 -0.2186
13782SOL    HW243341   8.498  -0.049   5.400  1.0620  0.3070 -0.7155
13783SOL     OW43342   4.704   6.279   2.519  0.1776 -0.4764  0.0888
13783SOL    HW143343   4.706   6.189   2.487  0.3565 -0.5397  0.2695
13783SOL    HW243344   4.730   6.272   2.611 -0.4019 -0.3054  0.2682
13784SOL     OW43345   0.329   4.153   7.403 -0.3969  0.1547 -0.3033
13784SOL    HW143346   0.378   4.071   7.397 -0.3639  0.2692 -1.8527
13784SOL    HW243347   0.375   4.203   7.470 -0.0213 -0.8222  0.1851
13785SOL     OW43348   7.681   0.178   6.979  0.3868  0.3900  0.2411
13785SOL    HW143349   7.674   0.127   7.060  0.5966 -0.2111 -0.1159
13785SOL    HW243350   7.590   0.202   6.958 -0.0360 -1.8866 -0.8735
13786SOL     OW43351   6.609   3.343   8.101 -0.3517 -0.4742 -0.3294
13786SOL    HW143352   6.579   3.333   8.011 -1.8410  0.0069  0.0713
13786SOL    HW243353   6.561   3.275   8.149  0.4302 -0.7290  0.0960
13787SOL     OW43354   8.605   6.378   2.444 -0.2984  0.4290 -0.0465
13787SOL    HW143355   8.550   6.343   2.373  0.2292  2.1081 -1.3272
13787SOL    HW243356   8.608   6.472   2.429  1.7648  0.5649  0.8368
13788SOL     OW43357   8.745   4.248   1.190  0.3776 -0.0953  0.2150
13788SOL    HW143358   8.678   4.306   1.152 -0.6095 -0.1464  1.7829
13788SOL    HW243359   8.698   4.198   1.257  2.2126  0.7357  2.2400
13789SOL     OW43360   3.989   1.130   1.643  0.0498  0.0978 -0.2331
13789SOL    HW143361   4.028   1.135   1.556 -0.8718 -0.2872 -0.6858
13789SOL    HW243362   3.947   1.044   1.645 -0.0732  0.1689  0.5337
13790SOL     OW43363   2.609   8.299   7.912 -0.0479  0.2310  0.1185
13790SOL    HW143364   2.683   8.246   7.882  1.9301  2.8080  0.0967
13790SOL    HW243365   2.580   8.346   7.835 -1.5365 -0.4560  0.2157
13791SOL     OW43366   1.312   2.885   7.173  0.2876  0.0568 -0.2278
13791SOL    HW143367   1.359   2.813   7.132  0.3524 -0.4324  0.6888
13791SOL    HW243368   1.281   2.850   7.256 -0.7377  0.7188 -0.3163
13792SOL     OW43369   1.582   0.113   5.881  0.4079  0.0743  0.2403
13792SOL    HW143370   1.512   0.098   5.818  2.7200 -2.0276 -2.0391
13792SOL    HW243371   1.611   0.202   5.864  0.1619 -0.0386 -0.8271
13793SOL     OW43372   0.719   8.054   4.563  0.1973  0.3010 -0.0384
13793SOL    HW143373   0.766   7.993   4.620  1.9957 -0.0385 -1.7738
13793SOL    HW243374   0.727   8.017   4.476 -1.2065  1.5563 -0.7501
13794SOL     OW43375   1.707   7.645   2.014 -0.2818 -0.2644 -0.2020
13794SOL    HW143376   1.726   7.562   2.059  1.2444 -0.1888 -0.6242
13794SOL    HW243377   1.652   7.694   2.074 -0.7763 -1.3879  0.2737
13795SOL     OW43378   3.001   7.443   6.862 -0.6572  0.7606 -0.6579
13795SOL    HW143379   3.024   7.395   6.941 -1.0268 -1.6243 -1.9113
13795SOL    HW243380   3.081   7.493   6.840  0.6485 -1.2010 -0.6118
13796SOL     OW43381   4.709   7.110   0.065  0.0156  0.7559  0.3826
13796SOL    HW143382   4.714   7.205   0.072 -2.0493  0.8063  2.5766
13796SOL    HW243383   4.646   7.093  -0.004  1.4714  0.8971 -1.0273
13797SOL     OW43384   2.120   2.791   0.910 -0.3362 -0.1772  0.6772
13797SOL    HW143385   2.089   2.856   0.973 -1.2350 -0.5893  0.6659
13797SOL    HW243386   2.215   2.803   0.909 -0.5334  1.8827 -0.1200
13798SOL     OW43387   3.436   5.043   4.194 -0.4072 -0.2591  0.3614
13798SOL    HW143388   3.465   5.098   4.122 -0.7671 -1.2954 -0.6000
13798SOL    HW243389   3.391   5.104   4.253  1.4355  0.9131  0.6358
13799SOL     OW43390   7.980   1.909   7.163  0.2262  0.1228 -0.0681
13799SOL    HW143391   8.035   1.918   7.086  1.5006  0.1919  0.8127
13799SOL    HW243392   7.966   1.999   7.193  1.9589  0.0081  1.2496
13800SOL     OW43393   4.346   1.427   3.638  0.2555 -0.2779  0.0330
13800SOL    HW143394   4.276   1.374   3.600  0.6757 -0.8360  0.0083
13800SOL    HW243395   4.405   1.445   3.565  0.9521 -1.1695  0.3522
13801SOL     OW43396   5.311   8.606   0.115  0.1739 -0.0936 -0.1701
13801SOL    HW143397   5.347   8.692   0.137 -0.1133 -0.3797  1.5612
13801SOL    HW243398   5.221   8.609   0.149 -0.0097 -0.8994 -0.5637
13802SOL     OW43399   2.361   2.385   1.165 -0.0788 -0.6580 -0.4570
13802SOL    HW143400   2.283   2.363   1.113  0.9366 -0.3123 -2.1883
13802SOL    HW243401   2.341   2.471   1.202 -0.3024 -0.2924 -1.3896
13803SOL     OW43402   3.841   2.426   4.861 -0.0940 -0.9576 -0.7555
13803SOL    HW143403   3.901   2.500   4.870 -1.9623  0.4979  0.7064
13803SOL    HW243404   3.794   2.444   4.779 -0.5069 -0.5474 -0.4306
13804SOL     OW43405   7.282   0.428   2.605 -0.2369 -0.0369  0.4977
13804SOL    HW143406   7.267   0.437   2.699  0.2650 -0.3616  0.6158
13804SOL    HW243407   7.203   0.463   2.564 -0.7046 -0.4202  1.0559
13805SOL     OW43408   1.571   7.614   1.771  0.6110 -0.2515  0.2955
13805SOL    HW143409   1.617   7.602   1.854 -0.1378  0.5211  0.8414
13805SOL    HW243410   1.641   7.628   1.707  1.2073 -1.1050  0.7408
13806SOL     OW43411   1.985   4.102   4.965 -0.1745 -0.6736 -0.0730
13806SOL    HW143412   1.937   4.175   5.004  1.1709 -0.0226  0.4388
13806SOL    HW243413   1.922   4.030   4.964 -1.4695  0.4213 -0.3941
13807SOL     OW43414   4.953   5.073   2.363  0.5116 -0.0929  0.2888
13807SOL    HW143415   5.012   5.077   2.288  1.2243  1.9202  0.8898
13807SOL    HW243416   4.888   5.007   2.339  2.0373 -1.1813 -1.0947
13808SOL     OW43417   2.775   4.143   8.581  0.3772 -0.0111  0.2589
13808SOL    HW143418   2.832   4.220   8.586 -0.2825  0.5372 -0.3648
13808SOL    HW243419   2.694   4.176   8.541 -0.2176 -0.8636  0.7311
13809SOL     OW43420   5.530   7.474   7.449  0.0509 -0.1146 -0.2412
13809SOL    HW143421   5.565   7.544   7.394  1.5864 -1.3420 -0.9079
13809SOL    HW243422   5.449   7.448   7.405  1.1715 -0.9669 -1.9125
13810SOL     OW43423   0.425   3.663   6.298 -0.6411 -0.2245 -0.0226
13810SOL    HW143424   0.509   3.666   6.252 -0.2404  1.4378  0.7153
13810SOL    HW243425   0.431   3.587   6.355  0.2504 -0.2923 -0.1979
13811SOL     OW43426   8.030   3.697   4.735 -0.1682  0.1976  0.3869
13811SOL    HW143427   8.014   3.667   4.645 -0.9830  1.6025  0.0303
13811SOL    HW243428   7.970   3.645   4.789 -1.5666  1.1389 -0.2153
13812SOL     OW43429   2.757   8.528   4.402  0.0717  0.8242 -0.6177
13812SOL    HW143430   2.770   8.607   4.349  0.0853  1.6279  0.5486
13812SOL    HW243431   2.663   8.526   4.420  0.2208  1.1941  0.2630
13813SOL     OW43432   1.715   3.691   1.346  0.1914 -0.3072  0.1197
13813SOL    HW143433   1.722   3.768   1.403 -0.3614  0.2353 -0.5256
13813SOL    HW243434   1.652   3.634   1.390  0.8876 -0.5798  0.7930
13814SOL     OW43435   7.429   2.773   4.214  0.3696  0.6157 -0.1098
13814SOL    HW143436   7.424   2.720   4.134 -1.8838  0.8477 -0.1969
13814SOL    HW243437   7.348   2.751   4.262  0.9670  1.5788  1.4069
13815SOL     OW43438   5.592   0.828   5.436 -0.2127 -0.2412  0.2416
13815SOL    HW143439   5.612   0.921   5.445 -0.3173 -0.0469 -1.3338
13815SOL    HW243440   5.643   0.799   5.361  0.3195 -1.6254  1.0978
13816SOL     OW43441   2.901   1.015   1.761  0.1114  0.3600 -0.5250
13816SOL    HW143442   2.889   1.033   1.667 -2.0359 -2.1335 -0.8639
13816SOL    HW243443   2.821   1.049   1.802 -0.0263 -0.6056  0.0338
13817SOL     OW43444   7.934   6.878   2.852 -0.5372 -0.1471  0.3522
13817SOL    HW143445   7.915   6.972   2.852  0.4503  0.0676  0.7709
13817SOL    HW243446   7.855   6.838   2.816 -1.0436  0.8274  0.3286
13818SOL     OW43447   8.691   3.471   5.625 -0.1971  0.5780 -0.3553
13818SOL    HW143448   8.763   3.498   5.681  0.1665  3.1734 -1.8781
13818SOL    HW243449   8.626   3.540   5.635 -0.6997  0.4057 -2.0340
13819SOL     OW43450   1.003   1.184   6.674  0.4109  0.7809  0.0297
13819SOL    HW143451   1.042   1.165   6.589  0.5606 -0.7923  0.4093
13819SOL    HW243452   1.078   1.195   6.733  0.3041  1.0254  0.1192
13820SOL     OW43453   1.408   2.787   6.792  0.2574 -0.2582 -0.7376
13820SOL    HW143454   1.433   2.724   6.859  3.7240  2.2873  0.6219
13820SOL    HW243455   1.315   2.803   6.808 -0.1371 -3.0680  0.4083
13821SOL     OW43456   5.235   6.084   3.790 -0.0553  0.3303 -0.2309
13821SOL    HW143457   5.308   6.139   3.817  2.0576 -0.6477 -3.2856
13821SOL    HW243458   5.189   6.136   3.725 -0.0611 -0.2355 -0.6926
13822SOL     OW43459   8.095   6.828   8.582  0.7432  0.6275  0.1404
13822SOL    HW143460   8.067   6.824   8.673 -1.8391 -1.5056 -0.6161
13822SOL    HW243461   8.107   6.921   8.564 -1.7131  1.3538  1.8407
13823SOL     OW43462   7.667   7.768   5.772  0.1963  0.4415  0.0778
13823SOL    HW143463   7.594   7.812   5.727 -0.9345  0.0426  1.4620
13823SOL    HW243464   7.645   7.675   5.768  0.4709  0.3422  0.7575
13824SOL     OW43465   6.859   8.186   5.212 -0.0871  0.5076 -0.9270
13824SOL    HW143466   6.786   8.194   5.274  0.4997  0.8598 -0.2752
13824SOL    HW243467   6.840   8.105   5.164  0.5391 -0.9612  1.1629
13825SOL     OW43468   5.863   2.959   3.061  0.6894 -0.3809  0.3262
13825SOL    HW143469   5.832   3.047   3.081 -0.6033 -0.7866  0.2364
13825SOL    HW243470   5.952   2.971   3.030  1.2839  0.6914  2.2577
13826SOL     OW43471   4.430   2.247   1.622  0.8475  0.0714  0.0299
13826SOL    HW143472   4.400   2.186   1.689  0.5072  1.3256  1.0707
13826SOL    HW243473   4.421   2.200   1.539  1.1089 -1.4543  0.8406
13827SOL     OW43474   0.316   4.576   8.455  0.2735 -0.7073  0.1837
13827SOL    HW143475   0.332   4.644   8.519  1.6218 -0.8840  0.0590
13827SOL    HW243476   0.361   4.499   8.489  1.4572 -0.6749 -1.1633
13828SOL     OW43477   3.656   6.938   3.318 -0.3988  0.9943 -0.2405
13828SOL    HW143478   3.604   6.969   3.244 -0.7253  1.7270  0.2776
13828SOL    HW243479   3.734   6.900   3.279 -1.9619 -1.5025 -1.1314
13829SOL     OW43480   5.239   8.746   0.848  0.2222  0.4367 -0.1633
13829SOL    HW143481   5.332   8.729   0.831  0.2841 -0.6619  1.1173
13829SOL    HW243482   5.197   8.662   0.830 -0.6513  1.1010 -1.3891
13830SOL     OW43483   5.293   1.694   1.155 -0.1838 -0.1590  0.0164
13830SOL    HW143484   5.376   1.682   1.201  0.3682  0.8334 -0.6750
13830SOL    HW243485   5.298   1.633   1.081  0.3441  0.5655 -0.5530
13831SOL     OW43486   3.563   0.481   4.913  0.4566 -0.1051 -0.1601
13831SOL    HW143487   3.644   0.441   4.881  0.6549 -0.5950  0.9267
13831SOL    HW243488   3.558   0.456   5.005 -0.8672  0.0237 -0.1721
13832SOL     OW43489   7.785   3.835   0.172 -0.2490  0.1496  0.0877
13832SOL    HW143490   7.700   3.814   0.211  0.2840  1.1383  1.9377
13832SOL    HW243491   7.845   3.771   0.211  0.5131  1.9082  1.9716
13833SOL     OW43492   7.553   3.023   5.711 -0.8650 -0.0726 -0.1019
13833SOL    HW143493   7.518   3.024   5.800  0.9135  2.3755  0.6829
13833SOL    HW243494   7.486   3.067   5.658  0.0374  2.9256  1.0324
13834SOL     OW43495   1.217   6.818   1.567 -0.2041 -0.3383  0.2448
13834SOL    HW143496   1.217   6.768   1.649 -0.6616 -0.2273  0.3120
13834SOL    HW243497   1.289   6.880   1.577  1.5622 -2.1464 -0.5524
13835SOL     OW43498   4.279   5.334   7.490  0.0306 -0.3901  0.0121
13835SOL    HW143499   4.203   5.391   7.476  0.4056  0.2224  0.4259
13835SOL    HW243500   4.275   5.309   7.582  1.2509  1.0438  0.5006
13836SOL     OW43501   7.705   7.250   2.385 -0.2853  0.0118  0.4086
13836SOL    HW143502   7.800   7.238   2.378 -0.0112  1.4264  1.2385
13836SOL    HW243503   7.675   7.257   2.294  0.2663 -1.3169  0.1110
13837SOL     OW43504   8.566   8.057   2.727 -0.0883  0.0681 -0.0393
13837SOL    HW143505   8.480   8.023   2.702 -0.4391  0.1634  0.9942
13837SOL    HW243506   8.590   8.116   2.656 -0.5559 -0.4874 -0.6768
13838SOL     OW43507   2.896   5.121   0.828 -0.1542  0.0179  0.0260
13838SOL    HW143508   2.844   5.191   0.868  0.2202 -0.3535  1.2012
13838SOL    HW243509   2.892   5.139   0.734 -2.2073  0.1387  0.0817
13839SOL     OW43510   0.600   5.284   0.181 -0.0254 -0.1787  0.2019
13839SOL    HW143511   0.647   5.358   0.218 -0.3185 -0.3208  0.8800
13839SOL    HW243512   0.648   5.207   0.213  1.9713 -0.2911 -2.7453
13840SOL     OW43513   6.671   0.834   1.784  0.1330  0.2796  0.2548
13840SOL    HW143514   6.690   0.771   1.715  0.1453 -0.3608  0.8368
13840SOL    HW243515   6.700   0.792   1.864 -1.0157  0.5101  0.8071
13841SOL     OW43516   4.934   0.849   3.193 -0.4653 -0.1554 -0.0905
13841SOL    HW143517   4.848   0.838   3.233 -1.4443 -0.5695 -2.2034
13841SOL    HW243518   4.927   0.928   3.139  1.4014  1.4790  1.8591
13842SOL     OW43519   5.894   2.920   1.545  0.0009 -0.6094 -0.0174
13842SOL    HW143520   5.867   2.952   1.631 -0.4083  0.1255 -0.4095
13842SOL    HW243521   5.925   2.998   1.499 -0.3340 -0.8915 -0.7361
13843SOL     OW43522   8.024   6.518   8.294 -0.2238  0.3575 -0.1972
13843SOL    HW143523   8.071   6.534   8.212 -3.7627  0.2816 -2.4941
13843SOL    HW243524   8.000   6.605   8.325  0.7505  0.3647  0.5792
13844SOL     OW43525   7.528   1.411   8.789 -0.2180 -0.2652 -0.0814
13844SOL    HW143526   7.479   1.362   8.723 -1.6051 -0.3801  0.9772
13844SOL    HW243527   7.563   1.487   8.742  2.3128 -2.3892 -1.8499
13845SOL     OW43528   3.318   7.896   8.671 -0.3666  0.3303  0.1961
13845SOL    HW143529   3.400   7.868   8.712 -0.4320 -0.8915 -0.4431
13845SOL    HW243530   3.274   7.949   8.738  0.3737 -0.0534  1.0030
13846SOL     OW43531   8.265   4.768   4.010 -0.1984  0.0384  0.0714
13846SOL    HW143532   8.227   4.796   3.927 -1.7843  1.5878  1.2395
13846SOL    HW243533   8.288   4.676   3.996 -0.1627  0.3388 -2.1358
13847SOL     OW43534   3.188   8.884   2.043 -0.0078  0.4690 -0.0026
13847SOL    HW143535   3.096   8.857   2.050 -0.0541  0.1285 -1.4231
13847SOL    HW243536   3.186   8.960   1.984  0.7584 -0.7259 -1.6713
13848SOL     OW43537   7.183   7.635   6.530  0.2176 -0.3420  0.4263
13848SOL    HW143538   7.267   7.658   6.571  0.1574 -0.2753  0.5106
13848SOL    HW243539   7.196   7.546   6.497  0.1303 -0.5466  0.9435
13849SOL     OW43540   1.565   8.281   5.425 -0.1709 -0.1385  0.0171
13849SOL    HW143541   1.578   8.313   5.514 -1.6518 -0.9166  0.5493
13849SOL    HW243542   1.649   8.297   5.381  1.0759 -1.0032  1.9410
13850SOL     OW43543   0.070   5.628   3.942 -0.1569 -0.5699  0.2000
13850SOL    HW143544  -0.004   5.614   3.884 -0.0191  1.6407 -0.6290
13850SOL    HW243545   0.035   5.614   4.030 -2.0224  1.7282 -0.0590
13851SOL     OW43546   3.133   5.765   3.235 -0.0386 -0.2838  0.1501
13851SOL    HW143547   3.176   5.758   3.320  2.0602  1.0932 -0.6976
13851SOL    HW243548   3.136   5.859   3.214 -0.8164 -0.5429 -1.2967
13852SOL     OW43549   0.758   4.958   1.026 -0.0255  0.1786  0.0143
13852SOL    HW143550   0.737   5.005   0.945 -0.2823  0.0659  0.0123
13852SOL    HW243551   0.728   5.016   1.095  0.5979  0.4695  0.0437
13853SOL     OW43552   1.343   7.808   5.661  0.2108  0.0554  0.1732
13853SOL    HW143553   1.342   7.723   5.705  1.1542  0.1845  0.4665
13853SOL    HW243554   1.435   7.836   5.664  0.4413 -0.1931 -2.4146
13854SOL     OW43555   8.738   8.245   6.430 -0.0882 -0.0466 -0.4591
13854SOL    HW143556   8.697   8.298   6.498 -2.0243 -1.4095 -0.4924
13854SOL    HW243557   8.702   8.278   6.348 -0.6722 -0.8417 -0.5369
13855SOL     OW43558   8.205   4.317   5.652  0.1024 -0.0396 -0.1618
13855SOL    HW143559   8.233   4.300   5.742  0.7698 -0.7657 -0.4921
13855SOL    HW243560   8.273   4.374   5.616  0.7418 -1.1002 -0.6981
13856SOL     OW43561   1.945   0.263   4.930  0.4731 -0.3118 -0.0311
13856SOL    HW143562   2.041   0.256   4.926  0.5695 -1.4619  2.4863
13856SOL    HW243563   1.920   0.212   5.007 -2.1258  0.5853 -0.1707
13857SOL     OW43564   3.273   0.389   4.836  0.1618  0.7374  0.1782
13857SOL    HW143565   3.342   0.324   4.825 -0.4522  0.2476 -0.9839
13857SOL    HW243566   3.317   0.473   4.825  1.1195  0.6172  2.5171
13858SOL     OW43567   1.747   6.774   6.783  0.0877  0.3598 -0.3507
13858SOL    HW143568   1.723   6.831   6.710  1.9636 -1.0364 -2.1694
13858SOL    HW243569   1.695   6.694   6.769  1.2622 -0.3403 -0.8264
13859SOL     OW43570   7.842   7.524   4.947  0.7813  0.6609 -0.0910
13859SOL    HW143571   7.843   7.451   4.886 -0.4790  0.9963 -0.5253
13859SOL    HW243572   7.935   7.538   4.968  1.1996  0.2538 -1.5627
13860SOL     OW43573   1.518   3.066   1.715  0.4057  0.3792 -0.1445
13860SOL    HW143574   1.572   2.999   1.674  0.1088  0.6732 -1.0187
13860SOL    HW243575   1.448   3.016   1.759 -0.4333  0.1498 -1.6871
13861SOL     OW43576   1.695   0.426   5.911  0.1290  0.6525  0.3124
13861SOL    HW143577   1.702   0.485   5.836  0.1660 -0.1717 -0.3504
13861SOL    HW243578   1.773   0.444   5.963  0.5586  0.6341 -0.3050
13862SOL     OW43579   5.940   8.892   1.944 -0.0841  0.2427 -0.3457
13862SOL    HW143580   5.961   8.823   1.882 -0.7419  0.6341 -1.0246
13862SOL    HW243581   6.025   8.925   1.974  0.2521  0.2081 -1.2261
13863SOL     OW43582   1.478   7.697   6.579 -0.4489 -0.0820  0.0701
13863SOL    HW143583   1.538   7.626   6.603  0.1842  0.7599  1.0420
13863SOL    HW243584   1.391   7.660   6.591 -0.1699 -0.1132  2.5435
13864SOL     OW43585   2.100   4.374   6.745 -0.3538  0.4844  0.1409
13864SOL    HW143586   2.148   4.306   6.792 -0.9130  1.5684  2.4035
13864SOL    HW243587   2.163   4.446   6.734  0.0559 -0.0853 -1.7139
13865SOL     OW43588   2.178   6.578   4.772  0.0561 -0.2949 -0.2081
13865SOL    HW143589   2.201   6.671   4.775 -1.1288 -0.0018  0.6383
13865SOL    HW243590   2.191   6.547   4.862 -2.3579 -0.1732  0.2735
13866SOL     OW43591   3.301   0.699   8.217  0.0864  0.2350 -0.2005
13866SOL    HW143592   3.296   0.683   8.311 -2.0797  0.3719 -0.2516
13866SOL    HW243593   3.370   0.640   8.187  1.2368  0.6103  1.5340
13867SOL     OW43594   3.013   1.818   3.149  0.1127  0.4706 -0.1329
13867SOL    HW143595   3.019   1.774   3.234  0.5241 -0.1132 -0.4596
13867SOL    HW243596   3.023   1.748   3.085  0.7030  1.0240 -0.6603
13868SOL     OW43597   1.459   6.257   6.949 -0.6520  0.1897 -0.1781
13868SOL    HW143598   1.512   6.203   6.890 -1.6672 -0.6927 -0.3223
13868SOL    HW243599   1.509   6.259   7.031  0.3419  0.6847 -0.7732
13869SOL     OW43600   4.599   7.001   4.602  0.2987 -0.0158 -0.5811
13869SOL    HW143601   4.574   7.041   4.686 -0.7785 -0.3964 -0.7092
13869SOL    HW243602   4.548   7.049   4.537  1.1992  0.3367 -1.0435
13870SOL     OW43603   6.906   4.577   0.201  0.1108 -0.0985  0.1585
13870SOL    HW143604   6.884   4.665   0.229  0.6837  0.1737 -0.2508
13870SOL    HW243605   6.826   4.546   0.158 -0.5914 -0.3235  1.5564
13871SOL     OW43606   3.730   7.962   3.715  0.1754 -0.3716  0.0041
13871SOL    HW143607   3.719   7.940   3.807 -0.0177 -0.7211 -0.1006
13871SOL    HW243608   3.705   8.055   3.710  0.7276 -0.1977  0.3952
13872SOL     OW43609   2.239   3.022   7.061  0.3806 -0.5040 -0.0767
13872SOL    HW143610   2.203   2.999   7.146 -0.7943 -1.8545 -0.8745
13872SOL    HW243611   2.186   2.972   6.999  0.4146  1.3704 -1.6944
13873SOL     OW43612   5.698   0.066   1.537  0.8205  0.0608  0.3168
13873SOL    HW143613   5.611   0.028   1.548  1.1214 -0.6057  0.4061
13873SOL    HW243614   5.741   0.010   1.472  0.6122  1.3526 -0.9965
13874SOL     OW43615   3.796   7.846   1.901 -0.1097  0.0222  0.0482
13874SOL    HW143616   3.708   7.865   1.933  0.0581 -0.1146  0.6133
13874SOL    HW243617   3.783   7.790   1.825 -0.5485  1.0966 -0.6816
13875SOL     OW43618   8.617   4.686   2.355  0.4655 -0.3099  0.2912
13875SOL    HW143619   8.563   4.735   2.416 -2.0613 -1.0006 -1.2448
13875SOL    HW243620   8.587   4.714   2.269  0.5390 -2.7970 -0.6253
13876SOL     OW43621   1.644   2.256   4.753 -0.5796  0.5828  0.2803
13876SOL    HW143622   1.684   2.270   4.667  0.0941 -0.5850  0.3802
13876SOL    HW243623   1.551   2.241   4.735 -0.1837 -1.3470 -0.4536
13877SOL     OW43624   7.642   6.336   5.390  0.1462 -0.3947 -0.0616
13877SOL    HW143625   7.591   6.347   5.470  0.8278 -0.9857  0.4703
13877SOL    HW243626   7.679   6.423   5.372  0.9168 -0.4965  0.9192
13878SOL     OW43627   0.461   2.499   7.711  0.1917 -0.3978  0.1288
13878SOL    HW143628   0.456   2.408   7.741  1.1814 -0.8221 -0.9268
13878SOL    HW243629   0.551   2.525   7.730  0.1320  0.1176 -0.2836
13879SOL     OW43630   4.924   1.584   7.868 -0.7183 -0.1708  0.0850
13879SOL    HW143631   4.847   1.637   7.847  0.3402  2.0047  1.3889
13879SOL    HW243632   4.998   1.638   7.841  0.4071 -1.1672  1.0705
13880SOL     OW43633   6.035   2.817   8.351  0.0999  0.2697  0.3934
13880SOL    HW143634   6.103   2.764   8.310  0.2750  1.6280 -1.1309
13880SOL    HW243635   5.954   2.767   8.336  0.5509 -0.6675  1.0034
13881SOL     OW43636   2.222   6.539   7.290  1.0517 -0.2983 -0.5035
13881SOL    HW143637   2.249   6.631   7.297  2.1928 -0.4132 -2.5531
13881SOL    HW243638   2.134   6.542   7.251  0.5958 -0.0801  0.5060
13882SOL     OW43639   2.078   1.297   7.204  0.3519  0.3588 -0.1076
13882SOL    HW143640   1.988   1.294   7.172  0.8436 -1.1225 -1.4621
13882SOL    HW243641   2.081   1.377   7.258 -1.4938  0.9641 -0.8109
13883SOL     OW43642   2.092   3.736   7.789 -0.2033  0.3524  0.4340
13883SOL    HW143643   2.076   3.692   7.706  1.5111  0.4609  0.0251
13883SOL    HW243644   2.172   3.697   7.823  0.5085  2.0537  0.8102
13884SOL     OW43645   4.121   4.904   5.779  0.7681 -0.2852 -0.0204
13884SOL    HW143646   4.050   4.964   5.753  0.1136 -1.1397 -0.2650
13884SOL    HW243647   4.172   4.954   5.843 -1.3390 -0.3872  1.8583
13885SOL     OW43648   5.621   4.129   6.974  0.3450  0.0440 -0.0622
13885SOL    HW143649   5.680   4.163   6.906 -0.3918  0.8966 -0.3017
13885SOL    HW243650   5.676   4.075   7.029  1.5603  1.4844  0.2042
13886SOL     OW43651   6.234   0.318   7.587  0.2480 -0.2645 -0.0333
13886SOL    HW143652   6.250   0.263   7.510 -0.5529 -0.5473  0.0010
13886SOL    HW243653   6.192   0.260   7.650  2.1877 -0.4446  1.2038
13887SOL     OW43654   8.312   8.135   4.993  0.6409 -0.7775  0.9321
13887SOL    HW143655   8.386   8.104   5.046  2.1221  1.2498  0.2121
13887SOL    HW243656   8.346   8.137   4.903 -1.0366 -1.8578  0.2418
13888SOL     OW43657   0.839   5.083   6.595 -0.0535  0.2930 -0.1247
13888SOL    HW143658   0.791   5.011   6.635 -0.3763  0.0591 -0.9152
13888SOL    HW243659   0.931   5.063   6.611 -0.1576 -0.0473  0.0546
13889SOL     OW43660   3.764   5.447   3.381  0.0286  0.1573 -0.4526
13889SOL    HW143661   3.684   5.468   3.333  0.4287  1.2190 -0.6663
13889SOL    HW243662   3.784   5.357   3.355 -0.1825  0.4507 -1.6949
13890SOL     OW43663   5.038   6.532   1.484  0.0522  0.4937  0.4930
13890SOL    HW143664   5.040   6.548   1.578  1.7620 -0.8876  0.7364
13890SOL    HW243665   5.098   6.597   1.447  1.2232 -0.4742  0.6481
13891SOL     OW43666   5.034   4.136   4.813 -0.2636 -0.2394  0.5242
13891SOL    HW143667   5.129   4.144   4.826 -0.0688 -1.1482 -0.2504
13891SOL    HW243668   5.015   4.193   4.738 -0.0829 -1.1495 -0.2325
13892SOL     OW43669   7.211   3.544   4.699 -1.0744 -0.0342  0.4278
13892SOL    HW143670   7.123   3.581   4.702 -2.3667 -2.8329  0.3100
13892SOL    HW243671   7.200   3.459   4.656  1.5297 -0.9018  1.2738
13893SOL     OW43672   3.329   2.290   2.685 -0.1457  0.3529  0.5664
13893SOL    HW143673   3.307   2.303   2.592 -0.9509 -0.6317  0.6100
13893SOL    HW243674   3.272   2.220   2.714  2.1024 -1.3928  1.0692
13894SOL     OW43675   3.338   0.176   5.198 -0.0440  0.1909 -0.1410
13894SOL    HW143676   3.396   0.100   5.204  1.1221  0.8747 -1.8797
13894SOL    HW243677   3.295   0.180   5.284  0.0874 -2.2124  0.1044
13895SOL     OW43678   0.784   2.690   8.449 -0.6235 -0.2537 -0.1887
13895SOL    HW143679   0.777   2.610   8.501  0.6116  0.2647  0.8219
13895SOL    HW243680   0.871   2.685   8.408 -1.5758 -0.6702 -2.2953
13896SOL     OW43681   5.420   3.246   2.504 -0.1400  0.0956 -0.2583
13896SOL    HW143682   5.480   3.301   2.554  1.8395 -1.0848 -1.1918
13896SOL    HW243683   5.384   3.305   2.437  0.5291  0.6848 -0.1152
13897SOL     OW43684   2.793   3.426   0.389 -0.2654 -0.0870  0.2602
13897SOL    HW143685   2.773   3.519   0.380 -0.6579 -0.1644  0.2967
13897SOL    HW243686   2.887   3.423   0.403 -0.1069  0.2419 -0.6911
13898SOL     OW43687   8.377   5.176   8.786  0.3366  0.8528  0.0698
13898SOL    HW143688   8.333   5.189   8.870  0.8787 -0.4870  0.6047
13898SOL    HW243689   8.469   5.165   8.809  0.4537  0.1658 -0.6538
13899SOL     OW43690   7.963   2.048   5.703  0.0149 -0.0931 -0.8334
13899SOL    HW143691   7.935   2.098   5.779  0.1125 -0.9238 -0.2367
13899SOL    HW243692   8.017   2.110   5.652  0.6936  0.2163  0.2223
13900SOL     OW43693   4.183   3.159   6.145  0.1132  0.0404 -0.1554
13900SOL    HW143694   4.090   3.166   6.165  0.0141 -1.1701 -0.1341
13900SOL    HW243695   4.227   3.190   6.224 -0.2904 -1.5244  0.7364
13901SOL     OW43696   1.258   4.495   6.882  0.0748  0.0619  0.4423
13901SOL    HW143697   1.211   4.490   6.965  0.6606  0.6726  0.8139
13901SOL    HW243698   1.250   4.407   6.844  0.5712 -0.4736  1.5566
13902SOL     OW43699   1.411   1.495   3.858 -0.1544 -0.2203  0.6216
13902SOL    HW143700   1.396   1.401   3.872  0.6164 -0.2860  1.0500
13902SOL    HW243701   1.325   1.534   3.868 -0.2491 -0.7074  1.9702
13903SOL     OW43702   6.287   5.604   3.063 -0.2341  0.0277  0.3907
13903SOL    HW143703   6.211   5.597   3.121 -0.8830 -0.3649 -0.4716
13903SOL    HW243704   6.361   5.576   3.116 -1.2092 -3.3683  0.2340
13904SOL     OW43705   7.830   1.056   3.856  0.0329 -0.3735  0.0490
13904SOL    HW143706   7.839   1.067   3.951 -1.6427 -1.5452  0.4057
13904SOL    HW243707   7.872   0.972   3.838  2.5493  0.9562 -0.7146
13905SOL     OW43708   1.155   8.434   5.628  0.2975 -0.2091  0.2132
13905SOL    HW143709   1.232   8.483   5.599 -0.4839  0.9406  0.0115
13905SOL    HW243710   1.174   8.343   5.605  2.0972 -0.1419  1.2647
13906SOL     OW43711   2.992   5.517   3.243 -0.5416 -0.0072 -0.7033
13906SOL    HW143712   2.961   5.510   3.333 -0.4443 -1.3150 -0.7467
13906SOL    HW243713   3.037   5.601   3.238 -1.2694  0.4450  0.2397
13907SOL     OW43714   8.326   0.244   6.865  0.2880  0.3173 -0.2139
13907SOL    HW143715   8.257   0.311   6.863 -1.9840 -1.8878 -0.4370
13907SOL    HW243716   8.312   0.193   6.786  0.5683 -1.6850  0.9643
13908SOL     OW43717   8.040   2.919   1.968 -0.0039 -0.3164 -0.2162
13908SOL    HW143718   8.095   2.842   1.957  0.0207 -0.2371 -0.6872
13908SOL    HW243719   8.055   2.947   2.058 -0.8933 -1.5284  0.3428
13909SOL     OW43720   3.851   0.976   3.988  0.6239  0.1726  0.3089
13909SOL    HW143721   3.933   0.960   4.033  0.4455  2.2107  1.4687
13909SOL    HW243722   3.795   1.016   4.054 -1.2868 -1.0235 -0.4894
13910SOL     OW43723   1.179   4.129   1.905 -0.2637  0.0173 -0.2103
13910SOL    HW143724   1.097   4.111   1.860  0.4767 -1.5011 -1.0193
13910SOL    HW243725   1.167   4.216   1.942 -1.8613  0.2436 -1.1610
13911SOL     OW43726   2.639   5.428   7.050 -0.5607 -0.3273 -0.2751
13911SOL    HW143727   2.689   5.348   7.032 -1.5133 -1.1017  0.4238
13911SOL    HW243728   2.706   5.496   7.058  0.4255 -1.3663  0.8110
13912SOL     OW43729   3.091   4.392   0.002 -0.1490  0.0813  0.4926
13912SOL    HW143730   3.169   4.371   0.053 -0.2441  0.0953  0.6448
13912SOL    HW243731   3.115   4.469  -0.049  0.1938 -0.3734 -0.0479
13913SOL     OW43732   6.641   5.614   2.794  0.5421 -0.0725 -0.0146
13913SOL    HW143733   6.682   5.662   2.722 -0.4229  0.1114 -0.4519
13913SOL    HW243734   6.563   5.665   2.816  1.7254  0.8616  2.3639
13914SOL     OW43735   3.218   6.312   7.263  0.3394 -0.1326  0.9889
13914SOL    HW143736   3.165   6.298   7.184 -0.1743  1.3560  1.0460
13914SOL    HW243737   3.272   6.233   7.270 -0.1554 -0.6226 -0.4186
13915SOL     OW43738   3.882   6.089   2.106 -0.5721  0.2693 -0.4292
13915SOL    HW143739   3.915   6.160   2.050 -0.5662  0.7192  0.1282
13915SOL    HW243740   3.941   6.090   2.182  1.3555 -2.3609 -1.7711
13916SOL     OW43741   1.350   1.160   2.763  0.1394  0.3643  0.1867
13916SOL    HW143742   1.390   1.133   2.845  0.0874 -0.2467  0.0142
13916SOL    HW243743   1.291   1.088   2.740  0.5340  0.2913 -0.6450
13917SOL     OW43744   3.312   4.955   0.072  0.2747  0.4746 -0.3646
13917SOL    HW143745   3.351   4.929  -0.011 -1.3725  0.0813 -1.0495
13917SOL    HW243746   3.234   4.901   0.080  0.8975 -0.1660  1.9183
13918SOL     OW43747   3.030   1.763   4.580 -0.2336 -0.9105 -0.6399
13918SOL    HW143748   3.026   1.679   4.625 -1.5518 -1.6059 -1.9695
13918SOL    HW243749   3.123   1.777   4.562  0.0732 -1.6997  0.2879
13919SOL     OW43750   7.327   6.954   2.790 -0.0209 -0.3453  0.0739
13919SOL    HW143751   7.278   6.964   2.871 -0.6431 -0.2068 -0.3088
13919SOL    HW243752   7.403   7.011   2.800 -0.3233  0.0027  0.3785
13920SOL     OW43753   3.786   0.930   6.483  0.3269  0.4773 -0.5365
13920SOL    HW143754   3.841   0.851   6.477  0.0702  0.1495  0.9602
13920SOL    HW243755   3.697   0.897   6.496  0.1781  1.0071 -0.1692
13921SOL     OW43756   2.014   2.093   0.877 -1.2294  0.2987 -1.0006
13921SOL    HW143757   2.081   2.042   0.922 -1.5470 -0.8890 -1.8321
13921SOL    HW243758   1.939   2.034   0.871 -3.1957  2.2536  1.7992
13922SOL     OW43759   5.001   2.558   6.465 -0.4829 -0.0964  0.1839
13922SOL    HW143760   4.989   2.589   6.376  3.1712  0.0851 -0.4039
13922SOL    HW243761   5.040   2.633   6.511  0.3532 -1.0714  1.1121
13923SOL     OW43762   4.073   4.243   8.214  0.1095  0.2279  0.5122
13923SOL    HW143763   4.006   4.261   8.148 -0.4258 -0.0782  0.9652
13923SOL    HW243764   4.135   4.185   8.170  0.0982  0.5374  0.0824
13924SOL     OW43765   4.808   6.872   1.860  0.4391 -0.0458 -0.1963
13924SOL    HW143766   4.891   6.915   1.879  0.5253  1.1350 -2.7692
13924SOL    HW243767   4.830   6.806   1.794 -0.3398 -1.3651  0.8055
13925SOL     OW43768   6.087   2.984   2.590 -0.0646  0.1537  0.1907
13925SOL    HW143769   6.100   2.940   2.506  0.3175 -2.1401  1.3621
13925SOL    HW243770   6.175   2.998   2.624 -0.2105 -0.7951  1.0497
13926SOL     OW43771   0.876   0.632   5.542 -0.0048  0.7283 -0.2954
13926SOL    HW143772   0.957   0.661   5.499  1.0230 -1.6752 -0.1085
13926SOL    HW243773   0.858   0.700   5.607  2.3225  0.9111  0.2250
13927SOL     OW43774   8.166   4.708   6.342 -0.3435  0.3015 -0.3101
13927SOL    HW143775   8.253   4.727   6.376 -1.0827 -1.8579  3.3222
13927SOL    HW243776   8.134   4.793   6.311  1.5428  2.0479  2.0844
13928SOL     OW43777   7.822   8.271   2.997 -0.7480  0.3371 -0.5282
13928SOL    HW143778   7.789   8.192   3.041 -1.5082  1.2637  0.6073
13928SOL    HW243779   7.853   8.239   2.912 -0.8270 -1.2228 -0.0041
13929SOL     OW43780   5.497   5.409   1.482  0.1366 -0.3406  0.6750
13929SOL    HW143781   5.494   5.313   1.477  1.3664 -0.4016  0.6847
13929SOL    HW243782   5.515   5.437   1.392 -0.4413 -0.0991  0.6311
13930SOL     OW43783   5.029   8.732   3.752  0.0964 -0.2055  0.2936
13930SOL    HW143784   5.050   8.823   3.729  0.6260  0.1676  2.0967
13930SOL    HW243785   5.078   8.680   3.688 -1.1590  0.7408 -1.5328
13931SOL     OW43786   2.737   1.663   2.615 -0.3572 -0.2262  0.0707
13931SOL    HW143787   2.660   1.654   2.671  0.7119  1.3402  1.9414
13931SOL    HW243788   2.811   1.665   2.676  1.1853 -1.4458 -1.6383
13932SOL     OW43789   4.849   0.986   1.691  0.4396 -0.3180 -0.2176
13932SOL    HW143790   4.816   1.045   1.760 -0.9403  0.4142 -1.4537
13932SOL    HW243791   4.893   1.044   1.629 -1.2438 -0.4984 -1.6310
13933SOL     OW43792   7.257   8.562   7.178  0.2317  0.0112 -0.0134
13933SOL    HW143793   7.272   8.475   7.139 -1.2510 -0.8768  1.2427
13933SOL    HW243794   7.166   8.558   7.209  0.7568  1.3133  1.8481
13934SOL     OW43795   4.877   4.590   7.065  0.4658  0.6019 -0.1020
13934SOL    HW143796   4.841   4.670   7.027 -0.7198  1.1253  1.9273
13934SOL    HW243797   4.917   4.619   7.147  0.2610 -0.8253  0.5337
13935SOL     OW43798   6.853   7.481   4.719  0.0819 -0.4917 -0.0431
13935SOL    HW143799   6.898   7.564   4.733 -0.4385 -0.1852 -0.1594
13935SOL    HW243800   6.790   7.475   4.791  0.0691 -0.7464 -0.0747
13936SOL     OW43801   6.690   8.509   1.545  0.2829 -0.0149 -0.0322
13936SOL    HW143802   6.763   8.470   1.496  0.6826  0.0329  0.5231
13936SOL    HW243803   6.708   8.486   1.636 -2.2725 -3.1942 -0.1609
13937SOL     OW43804   3.881   1.914   4.816  0.0566 -0.0870  0.9757
13937SOL    HW143805   3.837   1.999   4.824  2.5510  1.5956 -1.2224
13937SOL    HW243806   3.822   1.861   4.763 -0.5208  1.1365  0.3598
13938SOL     OW43807   6.468   2.068   6.075 -0.1592 -0.1738 -0.3560
13938SOL    HW143808   6.442   2.120   5.999  0.5814  0.3792 -0.2424
13938SOL    HW243809   6.528   2.002   6.041 -0.6877 -0.6307 -0.4168
13939SOL     OW43810   6.677   3.865   4.513  0.4666 -0.2610  0.1390
13939SOL    HW143811   6.764   3.836   4.488  0.0885 -0.4673 -0.9608
13939SOL    HW243812   6.685   3.960   4.523  0.5251 -0.0984 -1.2538
13940SOL     OW43813   8.069   4.907   6.600 -0.0398  0.2737 -0.0005
13940SOL    HW143814   8.041   4.920   6.509  0.7074  1.6697 -0.0478
13940SOL    HW243815   8.138   4.841   6.594  0.6702  1.0397 -0.5817
13941SOL     OW43816   3.816   7.017   6.855 -0.0379  0.6084 -0.0381
13941SOL    HW143817   3.813   7.094   6.798  0.2825 -0.0213 -0.9131
13941SOL    HW243818   3.889   7.035   6.915  0.1859  0.8744 -0.3885
13942SOL     OW43819   2.942   8.428   7.843 -0.1670  0.0730 -0.2846
13942SOL    HW143820   2.888   8.502   7.871  0.5153  0.1832  0.7617
13942SOL    HW243821   2.916   8.355   7.899 -1.1105 -0.6256 -1.5630
13943SOL     OW43822   8.684   7.414   0.504 -0.0964  0.0000 -0.0487
13943SOL    HW143823   8.700   7.448   0.416 -0.0302  0.8772  0.2935
13943SOL    HW243824   8.649   7.325   0.490  0.5758 -0.1343 -0.9300
13944SOL     OW43825   7.539   7.555   3.486 -0.2535  0.4312 -0.4472
13944SOL    HW143826   7.534   7.514   3.400 -0.0751  1.1989 -0.8314
13944SOL    HW243827   7.486   7.634   3.478 -0.6430  0.2643  0.3035
13945SOL     OW43828   6.104   1.723   3.108  0.4843 -0.1033  0.3757
13945SOL    HW143829   6.088   1.766   3.024 -0.3957  0.6316  0.9010
13945SOL    HW243830   6.036   1.655   3.114 -0.1499  0.5735  0.9716
13946SOL     OW43831   0.820   8.478   6.630 -0.1259 -0.3812 -0.3379
13946SOL    HW143832   0.832   8.385   6.611  1.3959 -0.0925 -0.9151
13946SOL    HW243833   0.725   8.488   6.638 -0.3057 -2.0386  0.1103
13947SOL     OW43834   5.783   1.529   5.668 -0.0664 -0.3744 -0.9286
13947SOL    HW143835   5.728   1.499   5.740  1.4479 -1.0785 -0.0118
13947SOL    HW243836   5.722   1.568   5.605 -1.4661 -0.0055  0.5930
13948SOL     OW43837   2.720   7.890   1.364 -0.6363 -0.0782 -0.8146
13948SOL    HW143838   2.642   7.942   1.343 -0.9172  0.4003  1.2114
13948SOL    HW243839   2.763   7.938   1.434  0.8548 -0.9722 -1.0700
13949SOL     OW43840   7.552   1.134   1.611  0.6579 -0.4558 -0.4320
13949SOL    HW143841   7.646   1.122   1.624  0.6615 -1.2184 -1.1203
13949SOL    HW243842   7.536   1.225   1.637  1.8745  0.2060 -1.8469
13950SOL     OW43843   5.180   2.506   8.816  0.2091  0.2395 -0.1819
13950SOL    HW143844   5.209   2.591   8.851  0.4136 -0.1935  0.7285
13950SOL    HW243845   5.092   2.523   8.783  0.2301  0.8024  0.0291
13951SOL     OW43846   2.596   5.050   7.429 -0.2866 -0.1224  0.1989
13951SOL    HW143847   2.531   5.054   7.499  0.2687 -0.7468  0.7546
13951SOL    HW243848   2.660   4.985   7.458  0.1977 -0.0575 -0.6775
13952SOL     OW43849   2.494   0.310   2.395 -0.8378 -0.0851  0.5437
13952SOL    HW143850   2.424   0.327   2.331  0.7291 -0.4875 -1.3741
13952SOL    HW243851   2.451   0.317   2.480 -2.9354  0.9063 -0.5262
13953SOL     OW43852   3.147   8.332   1.967  0.1657 -0.5559  0.3582
13953SOL    HW143853   3.128   8.355   1.876  1.5046 -2.0872 -0.3640
13953SOL    HW243854   3.201   8.404   1.999 -1.5875  0.7700  0.4964
13954SOL     OW43855   7.061   3.199   0.131 -0.2413 -0.5140 -0.1886
13954SOL    HW143856   7.105   3.134   0.186 -0.1707 -0.5179 -0.2502
13954SOL    HW243857   7.124   3.220   0.063  0.1991  0.5479  0.5395
13955SOL     OW43858   6.330   0.246   2.929  0.7188  0.6301 -0.3840
13955SOL    HW143859   6.313   0.191   2.852  0.0150  1.2359 -0.6821
13955SOL    HW243860   6.422   0.269   2.922  0.1791  2.6280 -2.4201
13956SOL     OW43861   4.154   1.474   3.133 -0.0310 -0.0116 -0.3856
13956SOL    HW143862   4.155   1.388   3.175  0.0327  0.2859  0.2418
13956SOL    HW243863   4.238   1.513   3.157  1.2007 -0.8312 -2.9839
13957SOL     OW43864   1.372   8.291   2.243 -0.5860  0.0047  0.1285
13957SOL    HW143865   1.360   8.239   2.322  0.3913  2.4522  2.0348
13957SOL    HW243866   1.457   8.335   2.256 -0.8485  1.2140 -1.8322
13958SOL     OW43867   4.088   4.879   6.262  0.0327 -0.1994  0.4495
13958SOL    HW143868   4.100   4.824   6.185  1.0755 -1.4777  1.4886
13958SOL    HW243869   3.994   4.895   6.265 -0.2191 -1.4405 -0.2010
13959SOL     OW43870   5.720   5.570   2.217 -0.0878  0.6835  0.6307
13959SOL    HW143871   5.635   5.598   2.181 -0.1259  0.9326  0.9133
13959SOL    HW243872   5.697   5.501   2.279  0.0102 -0.0328 -0.1061
13960SOL     OW43873   8.178   5.339   7.378  0.5174 -0.5092 -0.5493
13960SOL    HW143874   8.093   5.379   7.390  1.1042  1.3202 -2.0219
13960SOL    HW243875   8.183   5.272   7.446 -2.1162 -0.7625 -0.5065
13961SOL     OW43876   0.351   5.723   4.926  0.1733 -0.0861 -0.3786
13961SOL    HW143877   0.407   5.760   4.858  1.4813 -1.8174 -0.3041
13961SOL    HW243878   0.304   5.652   4.883  0.3523 -0.6330  0.3016
13962SOL     OW43879   1.685   1.995   1.482 -0.0104 -0.2050 -0.3094
13962SOL    HW143880   1.629   2.070   1.465 -0.3280 -0.7209 -1.6631
13962SOL    HW243881   1.646   1.953   1.559 -0.5033  0.3704 -0.2395
13963SOL     OW43882   5.845   3.640   7.514  0.0926  0.6438  0.2307
13963SOL    HW143883   5.837   3.575   7.584  1.5347 -1.0444 -1.0485
13963SOL    HW243884   5.754   3.660   7.490 -0.4145  0.6691  2.0079
13964SOL     OW43885   7.285   8.586   1.252 -0.5315 -0.3709  0.2652
13964SOL    HW143886   7.243   8.670   1.268  0.2140 -0.3789  2.6414
13964SOL    HW243887   7.378   8.603   1.265 -0.4855 -1.7971  2.2706
13965SOL     OW43888   4.587   0.387   4.404  0.2472  0.0729  0.1365
13965SOL    HW143889   4.667   0.339   4.425 -0.2981 -0.5998  0.7690
13965SOL    HW243890   4.555   0.418   4.489  0.8013  1.9499 -0.2934
13966SOL     OW43891   3.761   2.783   0.926  0.8081  0.2496 -0.1155
13966SOL    HW143892   3.668   2.804   0.923  0.7366 -0.1408 -1.1279
13966SOL    HW243893   3.802   2.844   0.864  1.3592  0.9826  0.9313
13967SOL     OW43894   5.069   8.275   8.146  0.3470 -0.1078  0.0849
13967SOL    HW143895   5.058   8.325   8.227 -0.4166 -1.9469  1.1880
13967SOL    HW243896   4.988   8.288   8.098  0.7559  0.8940 -0.3702
13968SOL     OW43897   1.804   3.864   5.173 -0.0320  0.2310 -0.2569
13968SOL    HW143898   1.753   3.784   5.183 -1.0076  0.8613 -0.1387
13968SOL    HW243899   1.858   3.868   5.253 -0.4473  0.0267  0.0374
13969SOL     OW43900   5.835   4.217   1.917  0.0054 -0.3324 -0.1904
13969SOL    HW143901   5.845   4.254   2.005  0.8728 -2.1250  0.5103
13969SOL    HW243902   5.922   4.222   1.878  0.0384 -1.1837 -0.2503
13970SOL     OW43903   3.394   3.645   6.714  0.0626 -0.1123 -0.1672
13970SOL    HW143904   3.397   3.697   6.634 -1.2686 -0.1323 -0.2509
13970SOL    HW243905   3.477   3.663   6.758  0.1116  1.1744 -0.7603
13971SOL     OW43906   2.244   2.674   1.201 -0.4871 -0.6187  0.2932
13971SOL    HW143907   2.200   2.655   1.284  0.7676  2.6242  1.8553
13971SOL    HW243908   2.198   2.751   1.166  0.3136 -0.6777 -0.9669
13972SOL     OW43909   8.654   3.948   6.454 -0.3929  0.5601  0.2692
13972SOL    HW143910   8.619   3.937   6.365 -0.3679  1.3610  0.1466
13972SOL    HW243911   8.748   3.963   6.441 -0.6911  2.7556  0.2367
13973SOL     OW43912   1.777   6.557   4.563  0.2560 -0.0992  0.4049
13973SOL    HW143913   1.811   6.627   4.508 -0.8060  2.1393  2.3935
13973SOL    HW243914   1.799   6.584   4.652 -0.4082 -2.2160  1.2794
13974SOL     OW43915   8.617   2.392   3.931 -0.1012  0.2373 -0.4049
13974SOL    HW143916   8.609   2.454   3.859 -0.6496  0.9835  0.2784
13974SOL    HW243917   8.533   2.348   3.935 -0.3764  0.8020  0.3006
13975SOL     OW43918   3.053   4.932   3.764 -0.0554  0.1738 -0.1754
13975SOL    HW143919   3.098   5.016   3.753  0.1957 -0.1204 -1.5469
13975SOL    HW243920   3.116   4.866   3.735 -1.4396 -0.2175 -2.5988
13976SOL     OW43921   3.576   6.650   5.097 -0.8745  0.1719 -0.4166
13976SOL    HW143922   3.536   6.665   5.011  0.1004 -1.3736 -1.1813
13976SOL    HW243923   3.523   6.580   5.136  1.1507 -2.1839 -1.6050
13977SOL     OW43924   6.661   5.180   4.682 -0.4565  0.1921 -0.2112
13977SOL    HW143925   6.615   5.209   4.604 -0.0059 -0.2316 -0.6415
13977SOL    HW243926   6.659   5.084   4.677  2.8441  0.0531 -1.7189
13978SOL     OW43927   4.327   0.760   6.965  0.4318  0.1974  0.4488
13978SOL    HW143928   4.295   0.672   6.944 -1.4930  1.1019 -0.7232
13978SOL    HW243929   4.285   0.781   7.049 -0.9773  0.8173 -0.3729
13979SOL     OW43930   4.359   2.902   3.434 -0.1727  0.4280 -0.2271
13979SOL    HW143931   4.346   2.808   3.446  0.6623  0.0583 -1.8904
13979SOL    HW243932   4.382   2.911   3.341 -1.3166  2.3958 -0.3634
13980SOL     OW43933   5.902   3.639   0.766  0.0602  0.0239 -0.0864
13980SOL    HW143934   5.994   3.659   0.752  0.0803 -0.1943 -0.2689
13980SOL    HW243935   5.856   3.686   0.697 -0.0472  0.8730  0.5506
13981SOL     OW43936   0.231   2.561   5.664 -0.0260  0.2418 -0.4821
13981SOL    HW143937   0.302   2.561   5.729  0.1384 -0.0682 -0.6621
13981SOL    HW243938   0.201   2.470   5.662 -2.8277  0.9065  2.2140
13982SOL     OW43939   5.650   0.647   8.581 -0.0629 -0.1176  0.2638
13982SOL    HW143940   5.610   0.715   8.526 -0.3951  0.5241  1.2630
13982SOL    HW243941   5.576   0.601   8.619  0.1327  0.3866  1.2902
13983SOL     OW43942   4.606   3.396   5.979 -0.6710 -0.1086 -0.1369
13983SOL    HW143943   4.587   3.485   5.949  0.8902  0.1697 -0.3865
13983SOL    HW243944   4.600   3.343   5.900 -0.4474 -0.0281 -0.2090
13984SOL     OW43945   3.291   7.034   6.864 -0.0780 -0.0464  0.7282
13984SOL    HW143946   3.378   6.994   6.858 -1.6151 -3.9176  1.0540
13984SOL    HW243947   3.277   7.075   6.779  1.3067 -1.2065 -0.0956
13985SOL     OW43948   6.590   1.476   1.907  0.7260 -0.2521 -0.0721
13985SOL    HW143949   6.663   1.506   1.853  1.9520  2.1289  2.6308
13985SOL    HW243950   6.631   1.442   1.986 -1.0495 -0.0103  1.0068
13986SOL     OW43951   5.068   8.764   7.627 -0.0482 -0.2288 -0.5426
13986SOL    HW143952   5.109   8.704   7.565 -0.5667 -1.2216  0.0598
13986SOL    HW243953   5.107   8.742   7.711  0.5010  0.9722 -0.4712
13987SOL     OW43954   4.843   7.384   6.495 -0.2348  0.2035  0.3347
13987SOL    HW143955   4.817   7.371   6.586  0.8099  1.6719  0.8839
13987SOL    HW243956   4.898   7.462   6.497  0.9198 -0.5103 -1.3508
13988SOL     OW43957   7.770   1.089   7.745 -0.1769 -0.6082 -0.3986
13988SOL    HW143958   7.813   1.087   7.831 -0.1022  1.2965 -0.3426
13988SOL    HW243959   7.693   1.033   7.755 -0.2358 -0.3247  0.9661
13989SOL     OW43960   4.710   0.927   2.073  0.0844  0.0618  0.1690
13989SOL    HW143961   4.727   0.983   2.149  0.2370  0.2277  0.0141
13989SOL    HW243962   4.774   0.856   2.081  0.9987  0.7794 -0.5074
13990SOL     OW43963   5.319   5.476   0.943 -0.2842 -0.4346  0.1374
13990SOL    HW143964   5.283   5.564   0.940  1.1675  0.1640 -0.8430
13990SOL    HW243965   5.362   5.470   1.028 -3.0216 -1.3702  1.5953
13991SOL     OW43966   2.182   3.902   7.514  0.3606  0.2515 -0.6466
13991SOL    HW143967   2.178   3.927   7.607  2.1611 -1.9063  0.1280
13991SOL    HW243968   2.121   3.961   7.470 -2.6382 -0.3460  2.2954
13992SOL     OW43969   6.426   8.463   8.329 -0.5197  0.3333 -0.4148
13992SOL    HW143970   6.479   8.511   8.392 -1.0252  1.1393 -0.5800
13992SOL    HW243971   6.467   8.377   8.323 -1.0625 -0.1392  1.7939
13993SOL     OW43972   7.859   0.433   2.163 -0.1507 -0.0218 -0.0014
13993SOL    HW143973   7.950   0.429   2.131 -0.5189  0.4211 -1.1585
13993SOL    HW243974   7.825   0.345   2.147  0.1561 -0.2812  0.7257
13994SOL     OW43975   0.572   4.002   0.251 -0.1160 -0.7209  0.1618
13994SOL    HW143976   0.561   4.093   0.223  1.3667 -0.5752 -0.0557
13994SOL    HW243977   0.660   4.000   0.289 -0.5717 -1.8209  1.1964
13995SOL     OW43978   5.642   3.621   8.375 -0.3783  0.0954 -0.1759
13995SOL    HW143979   5.595   3.650   8.297  1.2713 -0.0506 -1.2911
13995SOL    HW243980   5.710   3.687   8.388  1.9960 -1.9284 -1.4005
13996SOL     OW43981   4.204   3.598   0.419 -0.1617  0.6608 -0.5288
13996SOL    HW143982   4.204   3.593   0.324  0.0314  1.7928 -0.5963
13996SOL    HW243983   4.180   3.688   0.439  0.4247  0.6092  0.4915
13997SOL     OW43984   7.512   2.876   3.870  0.3586  0.6861  0.4259
13997SOL    HW143985   7.507   2.922   3.786  0.3667  2.0277  1.1386
13997SOL    HW243986   7.604   2.877   3.893  0.2338  1.2097  0.9213
13998SOL     OW43987   3.944   2.765   8.002 -0.4456  0.2042 -0.8420
13998SOL    HW143988   3.887   2.836   8.031  1.1759  2.1889 -2.3044
13998SOL    HW243989   4.011   2.807   7.948  0.6917 -2.4139 -1.6493
13999SOL     OW43990   3.502   6.955   3.115  0.1307 -0.7468 -0.2869
13999SOL    HW143991   3.506   7.036   3.064  2.3541 -0.6817 -0.1031
13999SOL    HW243992   3.499   6.885   3.050  1.8498 -0.6212 -0.5399
14000SOL     OW43993   4.961   0.700   2.417  0.5234 -0.2140  0.1600
14000SOL    HW143994   5.029   0.636   2.395  0.0307 -1.2721  1.5801
14000SOL    HW243995   4.981   0.726   2.507  0.4660  1.3459 -0.2489
14001SOL     OW43996   7.295   3.248   4.017  0.0897 -0.4771 -0.1669
14001SOL    HW143997   7.307   3.154   4.025  1.6899 -0.3590 -0.7469
14001SOL    HW243998   7.377   3.279   3.979 -0.1549  1.2252  0.6002
14002SOL     OW43999   2.055   0.019   3.869 -0.1557 -0.1682  0.1273
14002SOL    HW144000   1.988   0.051   3.808 -0.2624  0.5855  0.6241
14002SOL    HW244001   2.138   0.045   3.827 -0.1984 -0.4040 -0.1066
14003SOL     OW44002   8.517   0.112   0.967 -0.7026  0.0154 -0.0175
14003SOL    HW144003   8.609   0.087   0.964 -1.5494 -3.6030 -1.4364
14003SOL    HW244004   8.504   0.167   0.890 -0.1048 -1.2702 -1.0753
14004SOL     OW44005   7.524   7.608   1.802 -0.1681 -0.3862 -0.3012
14004SOL    HW144006   7.455   7.617   1.737 -0.3669 -0.1744 -0.0617
14004SOL    HW244007   7.602   7.644   1.760  0.1256 -1.8591 -1.0887
14005SOL     OW44008   5.225   4.895   7.248  0.1067 -0.1835  0.5234
14005SOL    HW144009   5.230   4.980   7.203 -2.7032  0.5339  1.3593
14005SOL    HW244010   5.308   4.889   7.296  0.7868  1.6113 -0.3117
14006SOL     OW44011   6.021   4.097   2.120 -0.5715  0.1642 -0.1982
14006SOL    HW144012   6.076   4.165   2.160 -2.1809  0.6747  1.2662
14006SOL    HW244013   6.083   4.032   2.088  0.9122  0.2655  2.2107
14007SOL     OW44014   4.553   5.132   0.466  0.1474 -0.1345  0.4142
14007SOL    HW144015   4.640   5.129   0.425 -0.1451 -0.9011 -0.1746
14007SOL    HW244016   4.570   5.162   0.556  0.9502  0.2737  0.1383
14008SOL     OW44017   7.875   5.491   4.772  0.6473  0.3162  0.0550
14008SOL    HW144018   7.836   5.412   4.810 -0.3426  0.7349 -0.0352
14008SOL    HW244019   7.960   5.499   4.814  0.1804 -0.0351  1.1121
14009SOL     OW44020   3.962   7.242   2.889 -0.4437 -0.4061 -0.1311
14009SOL    HW144021   3.937   7.266   2.978 -0.6113 -1.5466  0.1525
14009SOL    HW244022   4.055   7.264   2.883 -0.2531 -0.9465  0.5754
14010SOL     OW44023   3.204   1.000   5.885 -0.0647  0.1023  0.1900
14010SOL    HW144024   3.223   1.085   5.926  1.1547  0.8537 -1.7743
14010SOL    HW244025   3.290   0.965   5.861 -0.7042 -0.2262 -1.7758
14011SOL     OW44026   2.177   1.266   4.519 -0.0634 -0.0467 -0.0187
14011SOL    HW144027   2.271   1.284   4.515  0.0949 -0.9186 -0.5157
14011SOL    HW244028   2.158   1.220   4.437 -1.3801  2.1783 -1.0672
14012SOL     OW44029   3.591   1.069   0.979  0.6454 -0.2259  0.5489
14012SOL    HW144030   3.646   1.049   0.904 -1.5635 -0.4776 -1.1231
14012SOL    HW244031   3.546   1.150   0.954 -2.1175 -1.6983  0.3049
14013SOL     OW44032   8.551   0.087   6.441  0.5417  0.2573  0.0502
14013SOL    HW144033   8.557   0.164   6.384  1.6084  0.7760  0.8304
14013SOL    HW244034   8.477   0.106   6.498  1.8811  1.5810  1.4427
14014SOL     OW44035   5.913   0.193   1.158  0.4664  0.2837 -0.1992
14014SOL    HW144036   5.924   0.276   1.206 -1.4456 -1.1790  3.0954
14014SOL    HW244037   5.984   0.137   1.192 -0.2115 -0.4187  0.0780
14015SOL     OW44038   5.167   7.705   6.113 -0.0587  0.3836  0.1897
14015SOL    HW144039   5.115   7.733   6.189  1.9349  0.9624  1.4016
14015SOL    HW244040   5.174   7.610   6.123  0.2085  0.4583  0.7477
14016SOL     OW44041   7.891   6.553   0.799  0.9103 -0.0070  0.1421
14016SOL    HW144042   7.851   6.593   0.722  1.1353 -1.5400 -0.8169
14016SOL    HW244043   7.838   6.584   0.872  1.2976  2.3062 -0.4629
14017SOL     OW44044   0.140   1.749   1.564  0.1348  0.1283 -0.2515
14017SOL    HW144045   0.161   1.739   1.471 -1.0323  0.1230 -0.5348
14017SOL    HW244046   0.065   1.808   1.565  1.0672  1.3385  0.8051
14018SOL     OW44047   5.126   2.595   2.911  0.1816 -0.0941 -0.4652
14018SOL    HW144048   5.185   2.659   2.951  1.8405 -1.1698 -1.0598
14018SOL    HW244049   5.100   2.538   2.984  0.5227 -0.0663 -0.3173
14019SOL     OW44050   0.924   5.349   5.479 -0.6261 -0.2228  0.1476
14019SOL    HW144051   1.014   5.358   5.447 -0.4143  0.0010  0.7847
14019SOL    HW244052   0.934   5.336   5.574 -1.2673 -0.1806  0.2239
14020SOL     OW44053   1.800   5.241   1.228  0.4911 -0.2313  0.8388
14020SOL    HW144054   1.830   5.237   1.137 -0.3709  0.4207  0.5123
14020SOL    HW244055   1.810   5.151   1.260  0.5947 -0.5178  0.0330
14021SOL     OW44056   5.505   3.817   4.331  0.4582  0.3217 -0.3962
14021SOL    HW144057   5.479   3.905   4.360  1.8260 -0.2496  3.0336
14021SOL    HW244058   5.425   3.764   4.340  0.5939  0.3827  1.7242
14022SOL     OW44059   1.745   3.943   4.916 -0.2402  0.0849  0.1657
14022SOL    HW144060   1.777   3.931   5.006  0.1692 -1.6354 -0.1716
14022SOL    HW244061   1.657   3.905   4.917 -0.6467  0.9859  0.0597
14023SOL     OW44062   7.489   1.799   0.529 -0.1607 -0.0998  0.1472
14023SOL    HW144063   7.486   1.871   0.592  1.5490  0.7707 -0.7045
14023SOL    HW244064   7.576   1.760   0.542  0.7707  0.9189 -2.5137
14024SOL     OW44065   2.080   6.986   5.363 -0.4343 -0.5241  0.3975
14024SOL    HW144066   1.987   6.981   5.343 -0.8240  0.3664  1.8109
14024SOL    HW244067   2.109   7.067   5.320 -0.4239 -0.5471  0.3616
14025SOL     OW44068   0.314   4.590   7.090 -0.0168 -0.4537 -0.0568
14025SOL    HW144069   0.348   4.628   7.009 -0.3359  1.8092  0.8082
14025SOL    HW244070   0.356   4.640   7.160 -0.1972 -1.9614  1.2002
14026SOL     OW44071   3.839   5.874   2.999  0.2113 -0.0798  0.0000
14026SOL    HW144072   3.763   5.923   2.968 -0.9451 -1.6245  0.2672
14026SOL    HW244073   3.850   5.803   2.936 -0.5786 -1.7381  1.6200
14027SOL     OW44074   1.956   5.091   6.632 -0.3004 -0.0851  0.9195
14027SOL    HW144075   1.964   5.024   6.700 -0.1763 -0.3002  0.6922
14027SOL    HW244076   1.931   5.043   6.553  1.3272 -0.0927  0.3616
14028SOL     OW44077   1.902   0.380   5.585  0.0342  0.0590 -0.5308
14028SOL    HW144078   1.881   0.451   5.645 -0.1175 -1.1491  0.9031
14028SOL    HW244079   1.984   0.343   5.618 -0.3177 -0.9572 -0.7512
14029SOL     OW44080   5.123   4.485   5.479 -0.1356 -0.0331  0.2424
14029SOL    HW144081   5.145   4.432   5.402 -1.3168  0.7033 -0.6311
14029SOL    HW244082   5.057   4.433   5.525 -1.3141  0.6720 -0.6291
14030SOL     OW44083   5.352   4.628   6.085  0.0423  0.1723  0.0390
14030SOL    HW144084   5.256   4.640   6.082 -0.2008 -1.4010  0.8468
14030SOL    HW244085   5.375   4.643   6.176  0.1248 -2.2845  0.4799
14031SOL     OW44086   7.192   0.995   4.338 -0.2752 -0.5974 -0.5128
14031SOL    HW144087   7.231   0.920   4.384  1.2662  0.2148 -0.4208
14031SOL    HW244088   7.100   0.971   4.326 -1.2619 -0.2812  4.3346
14032SOL     OW44089   4.885   1.180   7.697  0.6576  0.1052 -0.2382
14032SOL    HW144090   4.827   1.126   7.643  0.0233  0.3191  0.2169
14032SOL    HW244091   4.839   1.190   7.780  0.9326  1.0380 -0.1798
14033SOL     OW44092   5.794   6.281   0.121  0.1308 -0.2921  0.0388
14033SOL    HW144093   5.878   6.327   0.117  0.0269  0.1926  2.2247
14033SOL    HW244094   5.740   6.323   0.054  2.1932 -1.9778 -2.8827
14034SOL     OW44095   0.679   0.292   2.591 -0.4232 -0.0971  0.0413
14034SOL    HW144096   0.622   0.283   2.668  0.9782  1.1266  1.3007
14034SOL    HW244097   0.715   0.205   2.577 -0.4418 -0.2740  1.0066
14035SOL     OW44098   2.038   1.196   6.313  0.1075  0.0719 -0.3221
14035SOL    HW144099   2.025   1.274   6.259 -1.2203  1.1632  1.4259
14035SOL    HW244100   2.133   1.183   6.315  0.2241  0.1557 -2.5859
14036SOL     OW44101   1.236   0.132   2.156  0.1596  0.1312  0.2216
14036SOL    HW144102   1.198   0.182   2.084  1.1800 -1.6471 -1.6660
14036SOL    HW244103   1.288   0.196   2.206  0.0010  1.2843 -1.0338
14037SOL     OW44104   3.776   5.939   8.620 -0.2213  0.1792 -0.2693
14037SOL    HW144105   3.740   5.869   8.674 -1.0837  1.3799  0.7749
14037SOL    HW244106   3.699   5.988   8.591  0.4226  1.4161  0.0649
14038SOL     OW44107   4.409   4.287   8.422 -0.4016  0.1624 -0.4640
14038SOL    HW144108   4.387   4.216   8.482  0.1079 -0.4135 -0.9394
14038SOL    HW244109   4.388   4.367   8.470  0.8744 -0.2435  0.8416
14039SOL     OW44110   4.810   2.354   1.781 -0.3338 -0.4843  0.3923
14039SOL    HW144111   4.743   2.343   1.849 -0.2067  0.2385  0.6343
14039SOL    HW244112   4.878   2.291   1.804 -0.4963 -0.5550  0.6824
14040SOL     OW44113   8.169   0.359   3.300 -0.1910  0.1745 -0.0376
14040SOL    HW144114   8.231   0.345   3.372  1.0881  1.9319 -0.7278
14040SOL    HW244115   8.114   0.431   3.329 -1.0609 -0.5144  0.0336
14041SOL     OW44116   1.885   3.189   0.823  0.5033 -0.0255 -0.1660
14041SOL    HW144117   1.905   3.258   0.760  1.1805  1.2678  1.4085
14041SOL    HW244118   1.969   3.146   0.839  0.6427  0.6060  0.9104
14042SOL     OW44119   2.320   6.937   3.129  0.5407 -0.4224  0.3803
14042SOL    HW144120   2.375   6.992   3.184 -0.4910 -0.1345  1.1413
14042SOL    HW244121   2.322   6.980   3.043  1.4017 -0.3540  0.4327
14043SOL     OW44122   6.238   5.423   8.563 -0.3490 -0.0960 -0.2898
14043SOL    HW144123   6.234   5.422   8.467 -1.9360  1.3731 -0.2921
14043SOL    HW244124   6.147   5.415   8.591  0.1819 -1.7357  1.1750
14044SOL     OW44125   5.234   0.092   6.489 -0.3961 -0.1205 -0.6891
14044SOL    HW144126   5.152   0.140   6.478 -0.5391 -0.8427 -3.8486
14044SOL    HW244127   5.302   0.157   6.472 -0.3440  0.1589  0.5275
14045SOL     OW44128   7.901   7.946   2.738  0.1309 -0.0991  0.0285
14045SOL    HW144129   7.890   7.989   2.653  1.1536 -0.5866 -0.3721
14045SOL    HW244130   7.816   7.905   2.755 -0.1706  0.2370 -0.6246
14046SOL     OW44131   4.408   4.526   4.614  0.6736  0.3948 -0.3148
14046SOL    HW144132   4.500   4.550   4.626  0.8952 -0.0052 -1.1215
14046SOL    HW244133   4.411   4.450   4.556 -0.1714  0.3480 -0.3071
14047SOL     OW44134   8.214   4.025   2.334 -0.1570 -0.4689  0.5976
14047SOL    HW144135   8.222   4.025   2.429 -2.1973  1.0870  0.8483
14047SOL    HW244136   8.121   4.009   2.318 -0.6741  3.0048 -0.8919
14048SOL     OW44137   2.035   6.652   0.909 -0.1390 -0.2671  0.0227
14048SOL    HW144138   2.094   6.580   0.888 -0.4846 -0.3862 -0.5711
14048SOL    HW244139   2.058   6.678   0.998  0.6909 -0.4164 -0.1482
14049SOL     OW44140   6.739   4.910   1.065  0.4723 -0.1615 -0.3826
14049SOL    HW144141   6.767   4.857   0.990 -0.7938 -1.5821  0.0916
14049SOL    HW244142   6.782   4.867   1.140  1.1614  0.8210 -0.1970
14050SOL     OW44143   6.287   3.486   5.301  0.5475 -0.2055  0.1436
14050SOL    HW144144   6.286   3.396   5.335 -1.5299 -0.3768 -0.2739
14050SOL    HW244145   6.303   3.475   5.207  0.7935 -0.1007  0.1732
14051SOL     OW44146   3.465   6.891   2.317  0.0012 -0.4225  0.5719
14051SOL    HW144147   3.553   6.869   2.287  0.1565  1.4700 -0.5444
14051SOL    HW244148   3.407   6.834   2.266  0.4957 -0.2002 -0.2662
14052SOL     OW44149   8.780   5.689   0.504  0.2049 -0.4376 -0.0082
14052SOL    HW144150   8.858   5.702   0.451  0.3650 -1.0886  0.0558
14052SOL    HW244151   8.807   5.627   0.572 -0.3548 -0.6452  0.0369
14053SOL     OW44152   1.001   0.430   1.531  0.3935  0.0513 -0.1827
14053SOL    HW144153   1.040   0.460   1.613  3.3606  1.4927 -1.9645
14053SOL    HW244154   1.032   0.340   1.521  1.4596  0.4420 -0.5011
14054SOL     OW44155   2.358   0.560   7.785  0.6085 -0.3682 -0.1293
14054SOL    HW144156   2.301   0.515   7.723  0.2454  0.0503 -0.1066
14054SOL    HW244157   2.386   0.639   7.739  2.4799 -1.3444 -0.7498
14055SOL     OW44158   6.782   6.453   2.673  0.2245  0.0179 -0.2543
14055SOL    HW144159   6.877   6.452   2.680  0.2062 -0.5071 -0.0104
14055SOL    HW244160   6.762   6.528   2.617  0.8709 -1.0057 -1.8903
14056SOL     OW44161   0.963   5.846   6.298 -0.2650 -0.1874 -0.3913
14056SOL    HW144162   0.888   5.842   6.240  0.5705  2.1490 -1.7773
14056SOL    HW244163   1.017   5.917   6.263  1.9627 -0.9203  1.2919
14057SOL     OW44164   4.577   6.732   8.654  0.6051  0.1715  0.2136
14057SOL    HW144165   4.535   6.776   8.580 -1.6089  1.6593  2.1997
14057SOL    HW244166   4.663   6.773   8.660  0.3137  0.9738 -0.7359
14058SOL     OW44167   8.405   0.919   8.402 -0.0176 -0.4331 -0.3245
14058SOL    HW144168   8.315   0.945   8.382 -0.5479 -1.8983  0.0095
14058SOL    HW244169   8.426   0.855   8.334 -0.1896 -2.0283  1.0657
14059SOL     OW44170   2.444   8.888   2.461  0.1399  0.1397  0.0580
14059SOL    HW144171   2.451   8.975   2.499 -1.7861 -0.2901  1.5601
14059SOL    HW244172   2.504   8.834   2.513  0.5647  0.3544 -0.2055
14060SOL     OW44173   4.435   8.892   7.004 -0.2257 -0.0428  0.6557
14060SOL    HW144174   4.382   8.829   6.956  0.3847 -1.0734  1.2942
14060SOL    HW244175   4.379   8.970   7.012 -0.4857  0.0126 -1.3286
14061SOL     OW44176   7.382   0.300   4.071  0.8383  0.3748  0.0068
14061SOL    HW144177   7.456   0.239   4.076 -0.8352 -1.7534  0.4942
14061SOL    HW244178   7.316   0.262   4.129 -1.0221  1.6412 -1.1748
14062SOL     OW44179   1.678   7.699   5.761 -0.0916 -0.7638 -0.3290
14062SOL    HW144180   1.686   7.775   5.703 -1.2914 -0.1371  0.2978
14062SOL    HW244181   1.634   7.633   5.708 -0.0726 -0.6241 -0.5216
14063SOL     OW44182   4.786   0.249   6.206  0.3271  0.1802  0.2545
14063SOL    HW144183   4.758   0.300   6.131  0.8834  1.3423  0.8134
14063SOL    HW244184   4.804   0.162   6.171  0.5121  0.6867 -0.9416
14064SOL     OW44185   4.687   4.720   8.066  0.2601 -0.2683 -0.6552
14064SOL    HW144186   4.694   4.719   8.161  1.6647  0.4155 -0.7204
14064SOL    HW244187   4.721   4.634   8.038  0.9740 -0.0152 -0.5826
14065SOL     OW44188   0.589   1.211   4.862  0.0120  0.0596 -0.3137
14065SOL    HW144189   0.604   1.304   4.843  1.3939 -0.1117 -0.1999
14065SOL    HW244190   0.675   1.179   4.891 -0.6721 -1.0238  0.6056
14066SOL     OW44191   0.548   5.592   6.254  0.7063 -0.1740  0.3368
14066SOL    HW144192   0.544   5.688   6.246 -1.6926 -0.2774 -0.6839
14066SOL    HW244193   0.508   5.574   6.339  1.3477 -0.2850  0.6209
14067SOL     OW44194   7.235   4.873   8.730 -0.4163  0.2296  0.1047
14067SOL    HW144195   7.318   4.863   8.777  0.9420  1.9517 -1.7270
14067SOL    HW244196   7.169   4.882   8.799  0.5388 -3.0845  1.6371
14068SOL     OW44197   0.121   0.601   8.073  0.3653  0.2345 -0.4470
14068SOL    HW144198   0.062   0.665   8.114 -0.9593 -1.3012  0.1478
14068SOL    HW244199   0.065   0.551   8.014  1.1375 -1.0136 -0.1673
14069SOL     OW44200   4.713   8.227   7.205 -0.3288 -0.2243  0.0993
14069SOL    HW144201   4.763   8.147   7.190 -0.2983  0.1285 -1.9754
14069SOL    HW244202   4.758   8.270   7.278 -1.0645 -2.6081  2.0911
14070SOL     OW44203   7.995   5.028   7.986 -0.2249 -0.6458 -0.4784
14070SOL    HW144204   8.043   4.958   7.942  0.9358 -0.0573 -0.1826
14070SOL    HW244205   8.035   5.109   7.953 -0.6511 -0.1528  0.1970
14071SOL     OW44206   1.503   6.537   7.266  0.0920  0.5542  0.2449
14071SOL    HW144207   1.484   6.611   7.208  1.2628 -0.2867 -1.2694
14071SOL    HW244208   1.494   6.460   7.211  0.1285 -0.3590  1.4777
14072SOL     OW44209   6.888   3.667   0.360 -0.6208 -0.5169  0.5207
14072SOL    HW144210   6.848   3.602   0.302 -0.7040 -1.5128  1.6661
14072SOL    HW244211   6.836   3.663   0.441 -0.5722  0.9237  0.6575
14073SOL     OW44212   8.677   7.371   2.440 -0.5760  0.4576 -0.5906
14073SOL    HW144213   8.724   7.290   2.419  0.8238  1.3853 -1.1821
14073SOL    HW244214   8.668   7.416   2.356 -0.7726  1.2130 -0.1713
14074SOL     OW44215   0.147   3.609   4.891 -0.5018 -0.4356  0.3509
14074SOL    HW144216   0.137   3.515   4.903 -0.5751 -0.5071 -0.2726
14074SOL    HW244217   0.222   3.619   4.833 -1.3849 -0.1795 -0.7765
14075SOL     OW44218   7.737   2.268   3.013  0.0031 -0.3176  0.2016
14075SOL    HW144219   7.762   2.353   3.051 -0.3775 -1.1583  2.5118
14075SOL    HW244220   7.653   2.284   2.970  0.0805  0.5311  0.3456
14076SOL     OW44221   4.521   5.563   2.741 -0.2049  0.0388 -0.0374
14076SOL    HW144222   4.427   5.558   2.723  0.0821 -0.9001 -1.4210
14076SOL    HW244223   4.562   5.556   2.655  1.1277  1.3185  0.4503
14077SOL     OW44224   5.212   8.864   2.740  0.2105 -0.2548  0.3267
14077SOL    HW144225   5.130   8.891   2.699 -0.0331  0.0527  1.0074
14077SOL    HW244226   5.280   8.911   2.690 -0.0301 -0.4275 -0.1680
14078SOL     OW44227   6.989   5.551   6.045  0.5602 -0.3258 -0.0335
14078SOL    HW144228   6.929   5.610   6.000  1.2607  0.2860 -0.2008
14078SOL    HW244229   6.970   5.564   6.138  0.6081  0.0631 -0.0743
14079SOL     OW44230   8.607   0.986   8.216 -0.0311 -0.8523  0.0656
14079SOL    HW144231   8.541   0.953   8.156  0.0099  0.4053 -0.7165
14079SOL    HW244232   8.564   0.986   8.301 -0.6817 -1.0422 -0.2539
14080SOL     OW44233   6.448   8.775   4.622  0.0474 -0.7147  0.5067
14080SOL    HW144234   6.388   8.798   4.692  0.7692 -1.4266  1.3753
14080SOL    HW244235   6.530   8.817   4.646  0.3870 -1.2246  0.2534
14081SOL     OW44236   2.929   2.880   8.106 -0.2913 -0.0759 -0.6409
14081SOL    HW144237   2.896   2.950   8.162  0.5772  0.4651 -0.7988
14081SOL    HW244238   2.870   2.880   8.031 -0.0184  0.7958 -0.8617
14082SOL     OW44239   7.027   8.524   8.013  0.4740  0.0570  0.0708
14082SOL    HW144240   7.089   8.513   7.941 -0.8348 -0.8774 -0.9507
14082SOL    HW244241   6.962   8.586   7.980  0.2674  0.1955  0.7273
14083SOL     OW44242   2.209   1.231   5.667  0.0360  0.1443 -0.5557
14083SOL    HW144243   2.145   1.183   5.615 -1.4240  0.4415  0.8948
14083SOL    HW244244   2.268   1.163   5.701  0.5133 -0.1319 -1.8631
14084SOL     OW44245   2.318   0.440   5.157  0.2667  0.4030  0.1118
14084SOL    HW144246   2.306   0.481   5.072 -0.6042  0.1623  0.1127
14084SOL    HW244247   2.232   0.444   5.198  0.6953  0.5990  1.0204
14085SOL     OW44248   8.223   0.614   8.784 -0.0564  0.2962  0.4615
14085SOL    HW144249   8.281   0.636   8.712  0.4696  2.6827  1.5166
14085SOL    HW244250   8.267   0.541   8.829  1.6595  1.3986  0.6515
14086SOL     OW44251   6.236   5.185   1.553  0.3906  0.2188  0.3226
14086SOL    HW144252   6.312   5.218   1.505  0.4179  1.1851  1.0277
14086SOL    HW244253   6.234   5.235   1.634 -0.7148 -0.1355  0.5330
14087SOL     OW44254   7.433   0.514   4.264  0.7794 -0.2016  0.1949
14087SOL    HW144255   7.386   0.432   4.250  0.5956  0.0274 -0.6527
14087SOL    HW244256   7.514   0.504   4.214  0.8820  0.0201  0.3177
14088SOL     OW44257   6.852   2.408   2.329 -0.1197  0.0736  0.5775
14088SOL    HW144258   6.926   2.423   2.270 -0.4783 -1.8918 -0.4778
14088SOL    HW244259   6.878   2.450   2.411  1.5599  0.6051 -0.1713
14089SOL     OW44260   6.915   3.375   0.987  0.1602  0.5242  0.8008
14089SOL    HW144261   6.938   3.444   1.049 -1.1795  3.7718 -1.9860
14089SOL    HW244262   6.973   3.389   0.913 -0.1247 -1.4312  0.1583
14090SOL     OW44263   7.989   8.322   3.972  0.6146 -0.2990 -0.0415
14090SOL    HW144264   7.994   8.245   4.028  0.9958  0.0411  0.4046
14090SOL    HW244265   7.950   8.389   4.027 -3.6144 -1.2054 -1.5982
14091SOL     OW44266   7.725   5.213   5.914  0.4870 -0.1982 -0.0061
14091SOL    HW144267   7.666   5.189   5.842  0.3614  1.0903 -0.3540
14091SOL    HW244268   7.667   5.226   5.989  0.3426  0.8390 -0.2896
14092SOL     OW44269   6.465   6.945   2.956  0.5335 -0.2292 -0.0406
14092SOL    HW144270   6.389   6.888   2.952  0.1860  0.1351  0.9716
14092SOL    HW244271   6.540   6.887   2.939  0.0291 -0.5270 -1.3443
14093SOL     OW44272   8.299   2.783   4.245  0.3626 -0.0012  0.3988
14093SOL    HW144273   8.233   2.781   4.313  0.7940 -2.0840  0.8270
14093SOL    HW244274   8.251   2.769   4.163  0.0423  0.7897  0.4450
14094SOL     OW44275   8.333   7.700   6.806 -0.1074 -0.1367 -0.1516
14094SOL    HW144276   8.386   7.672   6.882 -1.5977 -2.0961  0.2643
14094SOL    HW244277   8.382   7.773   6.769  3.1237 -2.0154 -0.0264
14095SOL     OW44278   5.477   3.100   0.190  0.1852 -0.5757 -0.5009
14095SOL    HW144279   5.446   3.138   0.108  0.1214 -0.7341 -0.5517
14095SOL    HW244280   5.513   3.015   0.165 -1.5064 -1.4483 -0.1314
14096SOL     OW44281   2.848   4.952   0.297 -0.1042 -0.3619  0.2985
14096SOL    HW144282   2.913   4.989   0.357 -1.5042 -2.9017  3.7313
14096SOL    HW244283   2.854   4.857   0.311 -1.7759 -0.9588 -2.3566
14097SOL     OW44284   1.746   7.608   4.112 -0.2010  0.2777 -0.2201
14097SOL    HW144285   1.660   7.579   4.143 -0.1234 -0.2044 -0.4458
14097SOL    HW244286   1.777   7.668   4.180 -0.8055  0.6173 -0.2390
14098SOL     OW44287   0.795   3.532   1.899  0.2421  0.3249  0.4601
14098SOL    HW144288   0.768   3.622   1.917  2.4491  1.6496 -2.1241
14098SOL    HW244289   0.844   3.538   1.817  1.0601 -3.1576  0.5582
14099SOL     OW44290   0.481   4.154   1.604  0.1219  0.4290  0.2804
14099SOL    HW144291   0.399   4.165   1.555  1.6318 -1.5469 -3.0083
14099SOL    HW244292   0.544   4.209   1.558  1.3122 -0.4581  0.7958
14100SOL     OW44293   2.373   1.194   2.728 -0.6940 -0.2266 -0.1686
14100SOL    HW144294   2.410   1.111   2.756 -0.3191  0.1804  0.5989
14100SOL    HW244295   2.360   1.243   2.810  0.2667  0.9460 -0.6822
14101SOL     OW44296   5.629   7.582   3.873  0.0971 -0.1687  0.1723
14101SOL    HW144297   5.674   7.542   3.798 -2.0600  0.6571 -1.6599
14101SOL    HW244298   5.700   7.607   3.932  1.7668 -2.6020 -0.6555
14102SOL     OW44299   8.499   0.912   3.793 -0.4228  0.0429  0.4314
14102SOL    HW144300   8.545   0.877   3.869 -0.4238 -1.8999 -0.4053
14102SOL    HW244301   8.413   0.870   3.797 -0.9765  1.1242  0.1860
14103SOL     OW44302   5.276   2.819   2.373  0.1272  0.0149  0.4707
14103SOL    HW144303   5.182   2.839   2.376 -0.3179 -1.6386 -0.9126
14103SOL    HW244304   5.318   2.897   2.409 -1.7304  1.1716  0.2689
14104SOL     OW44305   4.254   7.161   2.989  0.4792  0.2640 -0.2120
14104SOL    HW144306   4.306   7.224   3.038  0.0621  0.7135 -0.3427
14104SOL    HW244307   4.310   7.135   2.915  0.9077 -0.0275  0.2135
14105SOL     OW44308   4.237   0.667   0.157  0.6229  0.4169 -0.2552
14105SOL    HW144309   4.182   0.605   0.110 -1.6638  2.2604 -0.1998
14105SOL    HW244310   4.327   0.638   0.140 -0.3077 -2.3877 -0.8393
14106SOL     OW44311   7.052   0.416   7.469 -0.1947 -0.6606 -0.9588
14106SOL    HW144312   7.029   0.500   7.430 -2.3995 -1.1584 -0.8278
14106SOL    HW244313   7.147   0.423   7.485 -0.2538  1.6538 -1.2331
14107SOL     OW44314   7.774   1.674   1.802 -0.2325 -0.4150 -0.3204
14107SOL    HW144315   7.852   1.728   1.816 -0.1710 -0.4678 -0.4677
14107SOL    HW244316   7.804   1.600   1.750 -0.3178 -0.5942 -0.1167
14108SOL     OW44317   1.960   3.871   5.415  0.1163  0.0790 -0.5027
14108SOL    HW144318   1.995   3.832   5.495 -1.9054 -2.4101 -0.6848
14108SOL    HW244319   1.926   3.956   5.442 -0.2967 -0.6108  1.2754
14109SOL     OW44320   3.413   6.988   6.422 -0.3441 -0.3705 -0.3352
14109SOL    HW144321   3.433   6.901   6.387  1.4705 -0.1200  0.0029
14109SOL    HW244322   3.442   7.048   6.354  2.2906  0.0820  1.0713
14110SOL     OW44323   7.279   0.519   3.091 -0.5663 -0.0824  0.1933
14110SOL    HW144324   7.200   0.469   3.110  1.1067 -2.8524  0.3727
14110SOL    HW244325   7.259   0.566   3.010 -2.2262 -1.0852 -0.0220
14111SOL     OW44326   6.807   1.420   5.779  0.5650  0.0331 -0.1394
14111SOL    HW144327   6.763   1.404   5.862 -0.0757  1.4634 -0.1760
14111SOL    HW244328   6.775   1.506   5.751  0.8314 -0.3831 -1.8271
14112SOL     OW44329   1.884   6.366   7.278 -0.6512  0.5700  0.0123
14112SOL    HW144330   1.952   6.302   7.297 -1.5042 -0.1250  0.8158
14112SOL    HW244331   1.894   6.385   7.184 -0.4645 -0.8299 -0.2685
14113SOL     OW44332   5.646   8.876   5.730 -0.0180  0.0508  0.1169
14113SOL    HW144333   5.558   8.890   5.765 -0.7652 -0.1720 -1.6021
14113SOL    HW244334   5.660   8.949   5.670  1.5546  0.8539  1.3723
14114SOL     OW44335   0.027   8.850   4.065 -0.0941 -0.1283 -0.0419
14114SOL    HW144336  -0.002   8.892   4.145  2.3846 -0.2722  1.0366
14114SOL    HW244337   0.087   8.912   4.025 -0.1565 -0.6684 -1.0125
14115SOL     OW44338   6.143   1.341   0.145  0.2127  0.2482  0.4673
14115SOL    HW144339   6.050   1.363   0.149  0.2050  0.1582  0.7698
14115SOL    HW244340   6.155   1.273   0.211  1.1114  2.4409  2.7198
14116SOL     OW44341   3.531   7.430   8.498  0.1309 -0.5726 -0.0997
14116SOL    HW144342   3.545   7.383   8.416 -0.6605 -1.3676  0.2093
14116SOL    HW244343   3.581   7.381   8.563 -0.4079 -0.7848  0.1582
14117SOL     OW44344   2.821   2.860   3.293 -0.3442 -0.4384  0.1619
14117SOL    HW144345   2.831   2.791   3.360 -0.6652 -2.1750 -1.4853
14117SOL    HW244346   2.910   2.889   3.275 -0.2836  0.3657  1.6214
14118SOL     OW44347   4.202   4.213   3.760 -0.1588 -0.1511 -0.1037
14118SOL    HW144348   4.203   4.117   3.750 -0.2910 -0.1329 -0.2961
14118SOL    HW244349   4.295   4.238   3.761 -0.0391 -0.4903  2.0236
14119SOL     OW44350   2.208   5.626   2.927  0.2642 -0.2151 -0.0099
14119SOL    HW144351   2.140   5.680   2.966  1.2636  1.2094 -0.1872
14119SOL    HW244352   2.228   5.560   2.994 -0.9748 -0.4142  0.1958
14120SOL     OW44353   8.206   8.503   3.580 -0.3468 -0.2578 -0.1216
14120SOL    HW144354   8.119   8.514   3.618  0.9657  2.7629  2.3746
14120SOL    HW244355   8.245   8.431   3.631 -1.5618 -2.3149 -1.9046
14121SOL     OW44356   1.324   2.645   4.406  0.6685 -0.7498 -0.2665
14121SOL    HW144357   1.337   2.700   4.484  0.4261 -1.7862  0.5236
14121SOL    HW244358   1.276   2.701   4.345  0.2801 -0.1391  0.5875
14122SOL     OW44359   5.223   7.055   3.607  0.1489  0.0340  0.7383
14122SOL    HW144360   5.270   6.986   3.654  0.4158  0.6480  1.3793
14122SOL    HW244361   5.287   7.125   3.595 -0.3270  0.4765  0.7522
14123SOL     OW44362   4.910   1.770   1.919  0.3425  0.3445  0.2135
14123SOL    HW144363   4.925   1.785   1.825  1.2039 -0.0159  0.2866
14123SOL    HW244364   4.816   1.750   1.925  0.3397  0.0453 -0.6188
14124SOL     OW44365   8.515   4.053   7.133 -0.1280  0.5572  0.1511
14124SOL    HW144366   8.536   4.041   7.041 -0.8851  1.2177 -0.1220
14124SOL    HW244367   8.592   4.097   7.170  0.3039  0.0070 -0.0913
14125SOL     OW44368   5.037   3.619   8.148 -0.1944  0.2289  0.1181
14125SOL    HW144369   5.078   3.537   8.174 -0.2588  0.1027 -0.1783
14125SOL    HW244370   5.037   3.672   8.228  2.2094  0.9435 -0.3071
14126SOL     OW44371   2.085   3.641   0.120 -0.1949 -0.1083  0.0995
14126SOL    HW144372   2.021   3.592   0.069 -2.1109  2.9402 -0.6907
14126SOL    HW244373   2.093   3.725   0.074  2.7943  0.4468  1.3892
14127SOL     OW44374   4.154   2.278   7.027  0.0169  0.2351 -0.3194
14127SOL    HW144375   4.061   2.291   7.009 -0.4661 -2.1189  0.1162
14127SOL    HW244376   4.159   2.191   7.066  2.1491  1.2725  1.9741
14128SOL     OW44377   5.445   7.577   1.657 -0.0343 -0.1546 -0.4784
14128SOL    HW144378   5.529   7.575   1.703 -0.7778 -0.9995  0.8824
14128SOL    HW244379   5.424   7.484   1.642 -1.1800 -0.0032  0.0693
14129SOL     OW44380   0.403   1.403   2.856  0.3897 -0.3794  0.6342
14129SOL    HW144381   0.497   1.390   2.870  0.3321 -0.0578  1.3888
14129SOL    HW244382   0.381   1.476   2.914 -0.4877 -0.9819  1.0845
14130SOL     OW44383   1.209   5.436   3.395 -0.1473 -0.4104 -0.4037
14130SOL    HW144384   1.212   5.526   3.428 -0.0397 -0.3650 -0.5351
14130SOL    HW244385   1.232   5.444   3.302  2.9606 -0.8855  0.2168
14131SOL     OW44386   2.364   2.219   7.173  0.0297  0.4908  0.0466
14131SOL    HW144387   2.337   2.158   7.242  0.6058  0.8481  0.6024
14131SOL    HW244388   2.460   2.215   7.173  0.0355  0.3927 -0.8368
14132SOL     OW44389   7.877   2.518   3.163  0.3116 -0.0198 -0.6656
14132SOL    HW144390   7.898   2.560   3.080 -0.0336  1.9489  0.1956
14132SOL    HW244391   7.917   2.573   3.229  0.1551 -1.2732  0.5287
14133SOL     OW44392   5.399   6.680   2.783  0.1894 -0.1211 -0.0180
14133SOL    HW144393   5.338   6.649   2.717 -1.0925  2.7156 -0.3285
14133SOL    HW244394   5.359   6.654   2.866  0.3163 -1.2021 -0.2879
14134SOL     OW44395   7.821   6.139   5.396  0.0875 -0.1744  0.3660
14134SOL    HW144396   7.806   6.103   5.309  2.2825 -2.3282  0.7690
14134SOL    HW244397   7.754   6.207   5.406 -1.6861 -1.4265 -2.0701
14135SOL     OW44398   4.130   6.025   6.882  0.0076  0.3685 -0.0456
14135SOL    HW144399   4.084   5.994   6.804  0.7811  1.8357 -1.1336
14135SOL    HW244400   4.154   5.945   6.929  0.9515 -0.6575 -2.1447
14136SOL     OW44401   8.656   4.029   3.197  0.0968  0.3868  0.0603
14136SOL    HW144402   8.712   4.082   3.140  0.0743  1.5009  1.0311
14136SOL    HW244403   8.644   4.082   3.276 -1.7344 -0.1336  0.1911
14137SOL     OW44404   3.179   8.130   4.990 -0.0209 -0.0545  0.1316
14137SOL    HW144405   3.205   8.144   4.900 -1.4915  1.0797 -0.1589
14137SOL    HW244406   3.202   8.211   5.035  1.6844 -0.9898  1.0746
14138SOL     OW44407   6.170   5.795   7.763 -0.1795  0.1763  0.0727
14138SOL    HW144408   6.252   5.747   7.753  0.0082 -0.1537  2.5308
14138SOL    HW244409   6.195   5.881   7.796 -0.7337  0.6656 -0.7487
14139SOL     OW44410   6.268   1.706   3.929  0.7239  0.5951  1.0508
14139SOL    HW144411   6.342   1.686   3.872 -1.5356  0.2642 -2.0485
14139SOL    HW244412   6.278   1.799   3.949  0.7810  1.1926 -1.3764
14140SOL     OW44413   5.041   1.916   7.437 -0.7362 -0.3534  0.1065
14140SOL    HW144414   5.003   1.984   7.382 -0.2909  0.6082  0.9621
14140SOL    HW244415   4.974   1.848   7.441 -1.4132  0.2744 -0.3011
14141SOL     OW44416   7.422   3.095   1.518 -0.2646  0.1288  0.6902
14141SOL    HW144417   7.481   3.142   1.460  0.8595 -0.7073  1.1337
14141SOL    HW244418   7.471   3.086   1.600 -0.6836 -1.2723  0.8112
14142SOL     OW44419   1.118   8.122   2.977 -0.3086  0.0048  0.2912
14142SOL    HW144420   1.171   8.130   3.056 -0.6062 -0.7697  0.5771
14142SOL    HW244421   1.168   8.169   2.910  0.2888  0.0680  0.7721
14143SOL     OW44422   6.603   4.658   4.179  0.7987 -0.0646  0.0634
14143SOL    HW144423   6.514   4.665   4.144  0.5686  1.9073  0.8754
14143SOL    HW244424   6.599   4.585   4.240  0.0391 -0.6919 -0.7005
14144SOL     OW44425   7.092   8.023   4.902 -0.2005  0.5415  0.2795
14144SOL    HW144426   7.056   7.955   4.958 -0.3542  0.8366  0.5428
14144SOL    HW244427   7.076   7.992   4.812  0.2124 -0.0193  0.3912
14145SOL     OW44428   8.593   7.002   4.713 -0.2834  0.5030  0.0842
14145SOL    HW144429   8.546   7.047   4.783 -1.5522  0.5036 -0.7376
14145SOL    HW244430   8.531   6.998   4.641 -0.3639 -2.8158  0.1676
14146SOL     OW44431   7.238   1.138   0.927 -0.0676 -0.0881 -0.1573
14146SOL    HW144432   7.240   1.121   1.021  0.4602 -1.2110 -0.3527
14146SOL    HW244433   7.179   1.073   0.891 -2.4949  2.0486 -0.3321
14147SOL     OW44434   8.234   5.171   7.165  0.0726 -0.4001  0.0424
14147SOL    HW144435   8.267   5.102   7.223  0.7631 -0.5385 -0.4962
14147SOL    HW244436   8.190   5.233   7.224 -2.4075 -2.2890  0.3474
14148SOL     OW44437   6.762   5.330   7.569  0.2382  0.2010 -0.3145
14148SOL    HW144438   6.819   5.296   7.500  0.0212  1.5588 -1.1905
14148SOL    HW244439   6.815   5.397   7.613  0.1368 -0.1847  0.4151
14149SOL     OW44440   4.779   7.294   8.188 -0.1217 -0.3607 -0.3478
14149SOL    HW144441   4.729   7.346   8.250 -0.1198 -0.0911 -0.5682
14149SOL    HW244442   4.795   7.353   8.115  2.3130  0.2530  0.5980
14150SOL     OW44443   5.869   3.765   8.082  0.1059  0.5699 -0.3780
14150SOL    HW144444   5.947   3.713   8.097  0.0468  0.5378 -0.1749
14150SOL    HW244445   5.828   3.725   8.004 -0.0227  0.2107 -0.1313
14151SOL     OW44446   2.365   2.250   4.474 -0.1097 -0.1026 -0.2163
14151SOL    HW144447   2.374   2.303   4.394 -1.0916  1.4426  0.6528
14151SOL    HW244448   2.352   2.161   4.442 -1.0595  0.5683 -1.8237
14152SOL     OW44449   0.348   7.096   4.503 -0.0249  0.0975  0.0300
14152SOL    HW144450   0.281   7.125   4.565 -1.4408 -0.4011 -1.2124
14152SOL    HW244451   0.343   7.160   4.431 -0.6908 -1.1547 -1.0688
14153SOL     OW44452   2.270   6.602   6.733 -0.7859 -0.3568  0.8494
14153SOL    HW144453   2.175   6.595   6.727 -0.8081 -0.5744  1.3883
14153SOL    HW244454   2.286   6.679   6.788 -0.6603 -0.5361  1.0673
14154SOL     OW44455   7.115   8.213   5.110  0.2839 -0.4271  0.2795
14154SOL    HW144456   7.035   8.204   5.162  1.8080 -0.7216  2.7227
14154SOL    HW244457   7.173   8.266   5.165  3.0006 -3.0543  0.2099
14155SOL     OW44458   6.437   7.203   5.648  0.4091  0.1509 -0.2513
14155SOL    HW144459   6.511   7.255   5.616  0.4232 -0.3862 -1.1339
14155SOL    HW244460   6.478   7.134   5.701  0.3371  1.5045  1.6786
14156SOL     OW44461   1.939   7.474   8.096 -0.5221 -0.2027 -0.8446
14156SOL    HW144462   1.869   7.447   8.036 -2.7945  0.1695  1.4672
14156SOL    HW244463   1.940   7.569   8.092 -0.1078 -0.2055 -0.8835
14157SOL     OW44464   1.810   1.838   8.327  0.4096 -0.1766  0.1634
14157SOL    HW144465   1.761   1.881   8.397  1.0147 -0.4741  0.7792
14157SOL    HW244466   1.859   1.908   8.285  0.1729 -0.0230  0.1387
14158SOL     OW44467   2.979   0.177   1.959 -0.3412  0.5053 -0.3629
14158SOL    HW144468   2.978   0.160   1.865  0.1222  3.3400 -0.9834
14158SOL    HW244469   2.887   0.183   1.984 -0.5412 -2.3243 -0.0995
14159SOL     OW44470   6.897   5.931   1.257  0.0674 -0.3042  0.4259
14159SOL    HW144471   6.894   6.013   1.209  1.0660 -0.3864  0.1954
14159SOL    HW244472   6.853   5.867   1.201  0.5613 -0.2351 -0.0433
14160SOL     OW44473   5.898   2.139   0.201 -0.7419 -0.2234 -0.0491
14160SOL    HW144474   5.920   2.206   0.265 -2.4498 -0.9306  1.3463
14160SOL    HW244475   5.977   2.130   0.147 -0.1264  2.1700  0.3353
14161SOL     OW44476   6.431   1.689   5.510  0.4729  0.1008 -0.1998
14161SOL    HW144477   6.454   1.597   5.523 -0.1791 -0.1967 -1.0867
14161SOL    HW244478   6.497   1.722   5.450 -0.0232 -0.1384 -0.8936
14162SOL     OW44479   4.709   2.321   6.933 -0.0060  0.1993  0.4956
14162SOL    HW144480   4.644   2.283   6.875  0.1204  0.3553  0.2481
14162SOL    HW244481   4.792   2.284   6.903 -0.0456 -0.4492  1.1829
14163SOL     OW44482   1.912   0.399   8.010 -0.4852  0.3066  0.4967
14163SOL    HW144483   1.923   0.349   8.091 -1.0314  0.0990  0.4441
14163SOL    HW244484   1.999   0.401   7.971 -0.4196 -0.4479  0.5900
14164SOL     OW44485   2.096   6.373   0.590 -0.3040 -0.1204  0.1366
14164SOL    HW144486   2.161   6.423   0.541  1.0060 -1.3329  0.5708
14164SOL    HW244487   2.023   6.362   0.530  0.9540 -0.9340 -1.3057
14165SOL     OW44488   3.981   8.855   4.343  0.5897 -0.1364 -0.5311
14165SOL    HW144489   4.002   8.771   4.385 -1.3365 -0.9510 -1.0995
14165SOL    HW244490   4.064   8.883   4.303  1.4585 -1.3712  0.3371
14166SOL     OW44491   3.888   7.388   3.844 -0.2038  0.3326  0.0164
14166SOL    HW144492   3.880   7.476   3.806  1.0345  1.1542  1.5723
14166SOL    HW244493   3.939   7.401   3.923 -0.2277 -1.7804  0.4135
14167SOL     OW44494   0.662   2.379   8.294 -0.0254 -0.0714  0.1385
14167SOL    HW144495   0.634   2.371   8.203  1.6808 -2.0470 -0.2733
14167SOL    HW244496   0.584   2.354   8.345 -0.2985 -1.3111 -0.8477
14168SOL     OW44497   4.713   5.019   2.976  0.1620 -0.4110 -0.0700
14168SOL    HW144498   4.737   4.996   3.066  1.9055  0.1573 -0.3431
14168SOL    HW244499   4.692   5.112   2.980  1.6662 -0.0213 -0.4588
14169SOL     OW44500   7.701   5.477   6.773 -0.4568 -0.5108 -0.8443
14169SOL    HW144501   7.788   5.517   6.769 -0.5100 -0.2216  0.6140
14169SOL    HW244502   7.700   5.416   6.699  1.1781 -0.9021 -0.5876
14170SOL     OW44503   4.113   0.794   5.923  0.6171 -0.4779 -0.0374
14170SOL    HW144504   4.204   0.802   5.951  1.1387 -0.9707 -1.4872
14170SOL    HW244505   4.080   0.884   5.921  0.4708 -0.4186  2.2421
14171SOL     OW44506   1.975   6.372   2.261  0.0703  0.5593  0.6363
14171SOL    HW144507   1.949   6.336   2.346 -0.8652 -1.9968 -0.6184
14171SOL    HW244508   1.900   6.354   2.204  1.1336  1.1520 -1.0196
14172SOL     OW44509   7.557   0.918   1.871  0.1494  0.5282  0.3536
14172SOL    HW144510   7.590   1.007   1.859 -0.1816  0.9354  2.1158
14172SOL    HW244511   7.484   0.911   1.810  1.4663  0.7086 -1.3144
14173SOL     OW44512   5.490   6.850   5.207 -0.4680  0.3638  0.1259
14173SOL    HW144513   5.405   6.814   5.180 -0.2874  0.5024 -0.6397
14173SOL    HW244514   5.539   6.773   5.238 -0.9417  0.3138  0.7640
14174SOL     OW44515   4.459   0.495   7.401  0.1940 -0.2017  0.2995
14174SOL    HW144516   4.426   0.478   7.312  2.6330 -1.7860 -0.3866
14174SOL    HW244517   4.402   0.565   7.434 -1.4441 -0.2689 -2.1021
14175SOL     OW44518   2.850   1.523   2.393  0.3502  0.0555  0.2649
14175SOL    HW144519   2.818   1.584   2.460  1.3013  0.7903  0.0710
14175SOL    HW244520   2.945   1.526   2.401  0.4403 -2.5779  1.2738
14176SOL     OW44521   7.695   4.669   0.477  0.2743  0.1922  1.0825
14176SOL    HW144522   7.610   4.713   0.478  0.3060  0.2891 -0.0255
14176SOL    HW244523   7.743   4.710   0.405  1.0354 -0.2948  1.2943
14177SOL     OW44524   2.393   1.817   1.883  0.2436  0.2462  0.2074
14177SOL    HW144525   2.455   1.748   1.858 -1.1598 -1.9802  2.4285
14177SOL    HW244526   2.313   1.797   1.834  0.4627  1.6800 -0.8092
14178SOL     OW44527   5.307   6.846   3.135  0.3939 -0.5147  0.0741
14178SOL    HW144528   5.219   6.836   3.173 -0.2567  0.1317 -1.2160
14178SOL    HW244529   5.292   6.879   3.047  1.9787  0.8324  0.2467
14179SOL     OW44530   3.413   5.660   0.421  0.2744 -0.8247 -0.1880
14179SOL    HW144531   3.376   5.623   0.501 -0.4577  0.2618 -0.0081
14179SOL    HW244532   3.358   5.736   0.402 -0.6704 -2.0314 -2.6959
14180SOL     OW44533   4.756   0.978   5.683 -0.3061  0.3607 -0.4501
14180SOL    HW144534   4.802   0.933   5.753  0.3111 -0.0822 -1.1262
14180SOL    HW244535   4.736   0.909   5.620 -1.0722  0.7110 -0.5977
14181SOL     OW44536   2.366   6.005   7.511  0.0567 -0.0036  0.1100
14181SOL    HW144537   2.304   5.948   7.557 -0.2487 -2.0989 -2.6657
14181SOL    HW244538   2.429   5.945   7.472  1.3516  1.7845 -0.6771
14182SOL     OW44539   5.633   5.415   4.557  0.3799  0.4055  0.3241
14182SOL    HW144540   5.680   5.336   4.584 -0.2340 -0.3399 -0.6899
14182SOL    HW244541   5.679   5.445   4.479  0.0014  0.4676  0.1224
14183SOL     OW44542   2.621   2.969   7.304 -0.0621  0.1263  0.0683
14183SOL    HW144543   2.631   2.874   7.308 -2.0802 -0.1123  0.3949
14183SOL    HW244544   2.530   2.984   7.328  0.9658  2.3616  3.1726
14184SOL     OW44545   6.765   4.650   7.027 -0.3841  0.0195  0.3576
14184SOL    HW144546   6.842   4.704   7.043 -0.5123  0.2022  0.3593
14184SOL    HW244547   6.693   4.712   7.022 -0.5424 -0.1571  0.4281
14185SOL     OW44548   1.287   0.719   0.342 -0.1537 -0.0426  0.3944
14185SOL    HW144549   1.245   0.636   0.317 -0.0990 -0.0585  0.3577
14185SOL    HW244550   1.380   0.698   0.350 -0.1286  0.0367  0.3012
14186SOL     OW44551   8.353   3.856   6.277 -0.1096 -0.2763  0.3825
14186SOL    HW144552   8.262   3.826   6.281 -0.7223  0.9018 -2.5195
14186SOL    HW244553   8.347   3.951   6.289  0.4436  0.0758 -1.8037
14187SOL     OW44554   1.254   2.270   7.752 -0.4342 -0.0339  0.4024
14187SOL    HW144555   1.342   2.294   7.722 -0.8382  0.7385 -0.1899
14187SOL    HW244556   1.229   2.341   7.811 -0.2676 -0.7661  1.3818
14188SOL     OW44557   1.608   6.806   2.825 -0.1913 -0.4175 -0.3712
14188SOL    HW144558   1.642   6.893   2.844  2.7415 -1.5757  0.2629
14188SOL    HW244559   1.547   6.787   2.897  0.5765  0.4043  0.5142
14189SOL     OW44560   4.893   2.971   0.525  0.1098  0.3549 -0.2019
14189SOL    HW144561   4.975   3.021   0.523  1.0193 -1.1056 -2.3341
14189SOL    HW244562   4.825   3.038   0.516  1.1134  1.4609  0.0475
14190SOL     OW44563   6.413   0.339   2.588 -0.0662 -0.3793  0.1352
14190SOL    HW144564   6.362   0.259   2.603  0.5057 -1.4857 -2.9584
14190SOL    HW244565   6.353   0.410   2.611 -1.0543 -1.6569  1.7615
14191SOL     OW44566   8.720   4.410   5.962 -0.0342  0.4569 -0.2239
14191SOL    HW144567   8.764   4.441   5.882  1.9763  0.1785  0.7090
14191SOL    HW244568   8.646   4.359   5.930  1.6348 -1.0353 -2.0131
14192SOL     OW44569   8.849   1.646   8.068  0.4006 -0.3830 -0.0663
14192SOL    HW144570   8.816   1.598   7.992  3.1727 -2.8633  0.1073
14192SOL    HW244571   8.944   1.643   8.058  0.7898  0.8495  2.5675
14193SOL     OW44572   8.330   2.722   2.271  0.3177 -0.0793 -0.0076
14193SOL    HW144573   8.360   2.710   2.361 -0.7956 -1.0357  0.2575
14193SOL    HW244574   8.278   2.644   2.252 -0.6117  0.7523 -1.0077
14194SOL     OW44575   1.021   6.294   4.466  0.5419 -0.5096  0.0424
14194SOL    HW144576   0.966   6.355   4.416  1.0337 -0.3650 -0.3274
14194SOL    HW244577   1.107   6.337   4.470  0.6676 -0.7991  0.4982
14195SOL     OW44578   5.897   4.886   5.166  0.0238 -0.2032  0.0944
14195SOL    HW144579   5.934   4.801   5.142  0.6014  0.1520 -0.2896
14195SOL    HW244580   5.833   4.866   5.235  0.6136 -0.8676  0.4565
14196SOL     OW44581   8.740   6.694   1.488 -0.6768 -0.7623 -0.4682
14196SOL    HW144582   8.681   6.751   1.439 -0.3370 -0.1159 -0.1415
14196SOL    HW244583   8.821   6.745   1.497 -0.3315 -1.3381 -0.2589
14197SOL     OW44584   2.291   8.492   7.092 -0.2932 -0.3290  0.3761
14197SOL    HW144585   2.335   8.482   7.008 -0.1145  1.4311  0.2077
14197SOL    HW244586   2.201   8.515   7.070 -0.5448 -1.0146  0.6799
14198SOL     OW44587   3.056   0.874   8.199 -0.5294  0.5872  0.4156
14198SOL    HW144588   2.965   0.846   8.192 -0.1896 -0.9652  1.7032
14198SOL    HW244589   3.107   0.793   8.198  0.7420  1.3384  1.0941
14199SOL     OW44590   1.698   6.355   0.029  0.5643  0.2543  0.3947
14199SOL    HW144591   1.731   6.393  -0.052  0.8295 -0.5186  0.1277
14199SOL    HW244592   1.605   6.340   0.012  1.1144 -2.4667 -0.8462
14200SOL     OW44593   8.655   0.371   5.902 -0.5539 -0.1314 -0.1391
14200SOL    HW144594   8.738   0.323   5.892  0.2396  1.3475 -0.8822
14200SOL    HW244595   8.591   0.318   5.854  0.7094  0.5342 -2.7039
14201SOL     OW44596   4.578   8.469   5.592  0.4596 -0.2216 -0.4314
14201SOL    HW144597   4.589   8.560   5.562  1.8178 -0.0222  0.5222
14201SOL    HW244598   4.520   8.476   5.668  0.3250 -0.1886 -0.5371
14202SOL     OW44599   5.540   3.757   8.790  0.3204 -0.1688  0.0226
14202SOL    HW144600   5.525   3.776   8.698  1.2998 -0.0174 -0.1225
14202SOL    HW244601   5.468   3.799   8.836 -0.5430 -0.8149 -0.7193
14203SOL     OW44602   2.373   1.348   1.835  0.3996 -0.2183 -0.3037
14203SOL    HW144603   2.306   1.386   1.891  1.0090  1.1539 -0.4679
14203SOL    HW244604   2.325   1.316   1.759 -0.6639 -3.6182  1.6189
14204SOL     OW44605   6.018   3.217   4.277  0.2993 -0.8347 -0.2854
14204SOL    HW144606   6.009   3.311   4.292  0.7934 -0.8422  0.0447
14204SOL    HW244607   5.932   3.181   4.301  0.1751 -0.4976 -0.2198
14205SOL     OW44608   4.333   2.643   1.451 -0.1037  0.4182 -0.6291
14205SOL    HW144609   4.284   2.597   1.383 -0.1661 -2.1527  1.0212
14205SOL    HW244610   4.302   2.605   1.533  1.2514  2.1330  0.7720
14206SOL     OW44611   5.989   2.327   8.605 -0.2592 -0.5130 -0.6668
14206SOL    HW144612   5.957   2.340   8.516 -0.5928 -1.2478 -0.6579
14206SOL    HW244613   6.058   2.261   8.597  0.8212  0.5629 -0.5915
14207SOL     OW44614   7.774   0.702   7.845  0.9664  0.4859 -0.1101
14207SOL    HW144615   7.701   0.665   7.795  0.2239  2.4817 -0.5960
14207SOL    HW244616   7.850   0.692   7.788  0.2310  2.2400 -1.4978
14208SOL     OW44617   1.034   4.705   4.507 -0.1321  0.3242  0.1962
14208SOL    HW144618   1.074   4.715   4.594  1.4008 -2.0975 -0.1221
14208SOL    HW244619   0.942   4.689   4.525  0.0143  0.6463  1.3276
14209SOL     OW44620   3.227   1.178   4.906 -0.1291 -0.6907  0.0127
14209SOL    HW144621   3.311   1.181   4.952 -1.3451  0.7999  2.3161
14209SOL    HW244622   3.233   1.250   4.842 -0.0555  0.1935  0.9813
14210SOL     OW44623   4.047   7.275   5.532  0.3524 -0.3709 -0.2632
14210SOL    HW144624   4.009   7.221   5.601 -0.0479 -0.7210 -0.7519
14210SOL    HW244625   4.120   7.321   5.575 -0.7400  0.4945  0.7615
14211SOL     OW44626   1.166   7.876   2.509  0.6881 -0.4552 -0.2975
14211SOL    HW144627   1.239   7.938   2.515  0.2449  0.0814 -0.3108
14211SOL    HW244628   1.094   7.928   2.473  0.0405 -0.7407  0.5627
14212SOL     OW44629   5.163   6.222   7.354  0.6142 -0.3029  0.3179
14212SOL    HW144630   5.145   6.315   7.367 -0.3898 -0.4294 -0.0519
14212SOL    HW244631   5.241   6.220   7.298  0.5374  0.3214  0.1804
14213SOL     OW44632   6.723   1.528   2.474 -0.2835 -0.2136  0.4036
14213SOL    HW144633   6.688   1.475   2.403  1.1082  0.2915 -0.7069
14213SOL    HW244634   6.652   1.589   2.496  0.4597  2.3950 -3.3951
14214SOL     OW44635   0.078   7.738   1.349  0.3308 -0.6026 -0.4713
14214SOL    HW144636   0.028   7.663   1.382  0.6872 -0.8857 -0.5716
14214SOL    HW244637   0.131   7.766   1.423 -0.4778  0.1402 -0.1478
14215SOL     OW44638   6.069   7.959   8.617  0.1785  0.1321 -0.2384
14215SOL    HW144639   6.013   7.918   8.552 -0.7524  0.8806  0.0671
14215SOL    HW244640   6.140   7.897   8.630 -0.6988 -0.9566 -0.4731
14216SOL     OW44641   4.087   4.039   2.049 -0.2302 -1.1139  0.2533
14216SOL    HW144642   4.075   4.092   2.128  0.8023 -0.8422  0.2407
14216SOL    HW244643   4.178   4.012   2.052  0.5292  0.8525 -2.0197
14217SOL     OW44644   1.312   6.015   8.516  0.3870 -0.0972  0.0984
14217SOL    HW144645   1.265   6.092   8.546 -1.1976 -0.7648 -0.5724
14217SOL    HW244646   1.264   5.941   8.552  1.0444 -0.8047 -0.4310
14218SOL     OW44647   3.936   7.608   1.590  0.2536 -0.3836  0.3524
14218SOL    HW144648   3.936   7.697   1.625 -0.1961 -0.9660  1.9210
14218SOL    HW244649   3.928   7.619   1.495  1.3284  1.2598  0.4104
14219SOL     OW44650   1.931   2.591   8.653  0.6092 -0.1279  0.1646
14219SOL    HW144651   2.020   2.616   8.679 -0.1167  0.0582  2.6548
14219SOL    HW244652   1.882   2.673   8.655  0.0131 -0.4909  0.4616
14220SOL     OW44653   1.022   0.678   0.703 -0.6747  0.2154  0.4138
14220SOL    HW144654   1.107   0.710   0.674 -0.5559 -0.0911  0.4227
14220SOL    HW244655   1.040   0.628   0.782 -0.4324 -2.2854 -1.1009
14221SOL     OW44656   6.663   8.815   6.720  0.7583  0.4518  0.7707
14221SOL    HW144657   6.754   8.834   6.697  0.8645 -0.3319  0.5027
14221SOL    HW244658   6.663   8.722   6.741 -0.2501  0.0905 -0.6531
14222SOL     OW44659   3.484   4.740   3.092 -0.0651  0.7273 -0.1434
14222SOL    HW144660   3.413   4.679   3.109 -1.3712  1.5311 -2.2798
14222SOL    HW244661   3.564   4.690   3.111 -1.1305 -0.3268  1.9281
14223SOL     OW44662   0.025   0.346   7.304 -0.2116 -0.0727 -0.3241
14223SOL    HW144663   0.031   0.440   7.284  2.3137 -0.0076  0.4042
14223SOL    HW244664  -0.012   0.308   7.224  0.0129  1.3933 -1.1800
14224SOL     OW44665   5.300   3.273   5.592  0.1437 -0.0788  0.0371
14224SOL    HW144666   5.275   3.183   5.613 -1.4193  0.4099  0.4486
14224SOL    HW244667   5.326   3.270   5.500  1.2800 -1.1514  0.3686
14225SOL     OW44668   5.659   7.694   5.541 -0.1667  0.1171 -0.6801
14225SOL    HW144669   5.568   7.707   5.518 -0.1214 -1.2888 -1.8368
14225SOL    HW244670   5.697   7.782   5.543 -1.2989  0.6347 -1.2416
14226SOL     OW44671   2.559   1.497   7.942 -0.1758 -0.0443  0.3111
14226SOL    HW144672   2.609   1.561   7.890 -1.7492  0.4433 -0.6872
14226SOL    HW244673   2.578   1.413   7.901 -1.5203  0.3547 -1.2553
14227SOL     OW44674   6.922   5.502   5.289 -0.8203 -0.8055  0.7311
14227SOL    HW144675   7.015   5.487   5.305 -0.4088  0.9284  0.2257
14227SOL    HW244676   6.893   5.424   5.242  0.7669 -0.7324 -0.4796
14228SOL     OW44677   7.727   2.011   2.857 -0.2829 -0.3667 -0.3548
14228SOL    HW144678   7.757   1.932   2.902  0.1435  0.4790  0.9066
14228SOL    HW244679   7.751   2.082   2.916 -2.6093  0.5594 -0.4247
14229SOL     OW44680   3.970   0.883   7.072  0.0102 -0.7784  0.5103
14229SOL    HW144681   3.959   0.955   7.011  1.1694 -1.4132 -0.4998
14229SOL    HW244682   4.055   0.900   7.114 -0.7662 -0.3396  2.0029
14230SOL     OW44683   7.499   2.017   8.125 -0.7350 -1.0657 -0.0128
14230SOL    HW144684   7.510   2.006   8.219 -1.7498 -1.2078  0.1024
14230SOL    HW244685   7.570   1.965   8.087 -1.8620 -3.1941  0.6408
14231SOL     OW44686   5.997   0.722   1.320  0.0898 -0.5775  0.3657
14231SOL    HW144687   5.992   0.816   1.338 -0.8976 -0.3823 -0.7943
14231SOL    HW244688   6.090   0.706   1.303  0.3366  0.0949  1.0273
14232SOL     OW44689   4.955   4.540   4.343 -0.3569 -0.2334  0.5922
14232SOL    HW144690   5.010   4.608   4.383 -0.0981  0.5117 -0.9508
14232SOL    HW244691   4.963   4.465   4.402  0.8466  0.4619  1.3637
14233SOL     OW44692   4.333   3.106   4.160  0.3579 -0.3654  0.3050
14233SOL    HW144693   4.343   3.160   4.082  1.7047 -0.6186  0.2791
14233SOL    HW244694   4.358   3.018   4.132  0.4988 -0.5294  0.9264
14234SOL     OW44695   6.279   7.301   8.585 -0.3965  0.3135 -0.1885
14234SOL    HW144696   6.206   7.241   8.567  0.3897 -0.0033 -2.6169
14234SOL    HW244697   6.237   7.379   8.621 -1.6212 -0.9265  1.2306
14235SOL     OW44698   3.852   1.925   8.605  0.0557  0.0856 -0.1172
14235SOL    HW144699   3.866   1.973   8.523 -0.9120 -1.2622 -1.1165
14235SOL    HW244700   3.869   1.834   8.583  1.7346 -0.1059  1.7109
14236SOL     OW44701   7.002   0.139   1.695  0.2256  0.4486  0.0270
14236SOL    HW144702   7.080   0.166   1.647  0.5032 -1.4050 -0.6763
14236SOL    HW244703   7.036   0.090   1.770 -0.2491  1.6640  1.0691
14237SOL     OW44704   7.803   2.714   8.825 -0.2765  0.0381  0.0696
14237SOL    HW144705   7.738   2.658   8.784  0.3259  0.2395 -1.2227
14237SOL    HW244706   7.791   2.800   8.784  2.0462 -0.3785 -1.7274
14238SOL     OW44707   5.369   3.132   4.501 -0.2177 -0.0428 -0.2860
14238SOL    HW144708   5.348   3.112   4.592  1.6196  0.5211  0.3240
14238SOL    HW244709   5.285   3.141   4.458 -1.1481  0.3526  1.5159
14239SOL     OW44710   8.474   5.210   4.038 -0.0769  0.7606  0.0776
14239SOL    HW144711   8.437   5.200   3.950  0.7115  0.5660 -0.2395
14239SOL    HW244712   8.452   5.128   4.083  1.5994 -0.1906 -0.7381
14240SOL     OW44713   1.736   5.194   0.191 -0.3429 -0.3207 -0.0510
14240SOL    HW144714   1.705   5.192   0.101  0.1307 -0.4353 -0.2151
14240SOL    HW244715   1.752   5.102   0.213  1.1581 -0.1779 -0.4312
14241SOL     OW44716   6.085   3.950   0.550  0.2496 -0.5964  0.5125
14241SOL    HW144717   6.141   4.028   0.548 -1.9646  1.1026  1.1909
14241SOL    HW244718   6.076   3.925   0.458  1.6685 -0.6241  0.3468
14242SOL     OW44719   0.132   1.602   1.997 -0.5569  0.1869  0.2812
14242SOL    HW144720   0.161   1.523   2.043  1.6522  0.8951  0.2036
14242SOL    HW244721   0.153   1.586   1.905 -0.6226  0.6577  0.1805
14243SOL     OW44722   1.516   8.412   7.926 -0.0701  0.0494 -0.1236
14243SOL    HW144723   1.596   8.419   7.874 -0.5662 -0.9272 -1.0858
14243SOL    HW244724   1.541   8.359   8.002  0.9608  2.4971  1.3622
14244SOL     OW44725   3.623   4.464   4.519  0.2390 -0.0608 -0.2641
14244SOL    HW144726   3.640   4.374   4.495 -0.0260 -0.8397  2.1838
14244SOL    HW244727   3.704   4.494   4.561  0.2237  0.7525 -0.7904
14245SOL     OW44728   8.017   6.673   7.534 -0.0532 -0.0592  0.1933
14245SOL    HW144729   8.024   6.631   7.619  0.3066  0.1063  0.2448
14245SOL    HW244730   8.105   6.666   7.496  1.0672  3.8351  1.6842
14246SOL     OW44731   7.470   0.546   0.050  1.1286  0.6933  0.0757
14246SOL    HW144732   7.465   0.482   0.121 -0.2799  0.8738  0.1757
14246SOL    HW244733   7.485   0.493  -0.028  1.3609  0.3667  0.3371
14247SOL     OW44734   2.568   3.611   0.129 -0.4984  0.3832  0.4752
14247SOL    HW144735   2.481   3.578   0.107  0.1056  0.0467 -1.7391
14247SOL    HW244736   2.626   3.565   0.068  0.9303  2.3027  0.2984
14248SOL     OW44737   8.876   5.777   7.612  0.2063  0.2395 -0.2664
14248SOL    HW144738   8.958   5.728   7.605  0.0103 -0.3497  1.0936
14248SOL    HW244739   8.891   5.838   7.685  0.1028  1.5597 -1.3035
14249SOL     OW44740   5.348   7.469   6.876 -0.2642 -0.1440  0.5221
14249SOL    HW144741   5.441   7.449   6.871  0.1688  1.6404  0.6897
14249SOL    HW244742   5.310   7.396   6.925  0.9460 -1.1404  0.0317
14250SOL     OW44743   3.168   7.279   2.925  0.1353  0.1173  0.3484
14250SOL    HW144744   3.102   7.218   2.957  0.3872  0.5394  1.7589
14250SOL    HW244745   3.198   7.325   3.003 -0.1659  2.1827 -0.6846
14251SOL     OW44746   4.816   6.107   7.316 -0.6586 -0.0315 -0.3468
14251SOL    HW144747   4.901   6.074   7.288 -0.7887 -1.4944  0.8421
14251SOL    HW244748   4.819   6.201   7.298  0.5839 -0.3056 -1.8076
14252SOL     OW44749   5.370   3.152   0.451 -0.0190 -0.0835  0.5363
14252SOL    HW144750   5.402   3.234   0.490 -0.4732  0.1227  0.4809
14252SOL    HW244751   5.405   3.151   0.363 -2.1680  1.3696 -0.4157
14253SOL     OW44752   4.089   3.736   8.589 -0.0877 -0.7650 -0.0854
14253SOL    HW144753   4.072   3.785   8.509 -0.0515 -1.1047 -0.3043
14253SOL    HW244754   4.147   3.665   8.562  1.0305 -0.1003  0.4954
14254SOL     OW44755   6.696   3.314   5.610  0.2203  0.5872 -0.0452
14254SOL    HW144756   6.664   3.367   5.538 -2.8070 -0.6835  0.1850
14254SOL    HW244757   6.748   3.245   5.569 -0.0797  0.8414 -0.8658
14255SOL     OW44758   5.713   6.121   2.221 -0.1345 -0.2309  0.3924
14255SOL    HW144759   5.757   6.150   2.141  0.5496 -0.8216  0.5536
14255SOL    HW244760   5.717   6.025   2.218  0.5406 -0.2498  1.4869
14256SOL     OW44761   5.713   0.134   1.794 -0.3697  0.7383  0.5432
14256SOL    HW144762   5.705   0.096   1.706 -0.2060  0.7639  0.5173
14256SOL    HW244763   5.796   0.100   1.827 -0.1794  1.1417  0.4890
14257SOL     OW44764   5.881   7.718   3.215 -0.1313 -0.1266 -0.0639
14257SOL    HW144765   5.920   7.646   3.165  0.3963  0.1030  0.0199
14257SOL    HW244766   5.955   7.768   3.248 -0.4730 -0.3606  1.0900
14258SOL     OW44767   0.009   1.492   2.714  0.4025  0.7726  0.4888
14258SOL    HW144768   0.058   1.412   2.697  1.2540  1.3668  0.0697
14258SOL    HW244769  -0.056   1.497   2.643  1.1223  1.0481 -0.1596
14259SOL     OW44770   6.736   8.393   3.838 -0.5487 -0.0936 -0.2378
14259SOL    HW144771   6.691   8.459   3.891  0.6459  0.5463  0.0055
14259SOL    HW244772   6.752   8.320   3.898  2.8030  1.4961  1.0299
14260SOL     OW44773   7.998   1.755   5.225 -0.2014 -0.0583 -0.3419
14260SOL    HW144774   7.969   1.707   5.303  1.4914 -0.2334  0.2420
14260SOL    HW244775   7.981   1.847   5.246  0.5464 -0.0712  0.4177
14261SOL     OW44776   6.942   8.602   5.458 -0.0348  0.1000 -0.2649
14261SOL    HW144777   6.902   8.636   5.378 -0.4307 -0.4578 -0.3150
14261SOL    HW244778   6.868   8.594   5.519  0.0980 -0.3942 -0.1671
14262SOL     OW44779   2.928   0.584   3.949 -0.2264  0.0757  0.0723
14262SOL    HW144780   2.891   0.512   3.998 -0.7867 -1.0077 -1.8385
14262SOL    HW244781   2.997   0.545   3.895  0.3487  1.2061 -0.0656
14263SOL     OW44782   6.049   6.231   4.575 -0.0120  0.3725 -0.2230
14263SOL    HW144783   6.131   6.205   4.533 -1.1673 -2.1410 -1.1776
14263SOL    HW244784   5.991   6.252   4.501 -0.3564  1.8468  0.4283
14264SOL     OW44785   7.300   7.744   4.872 -0.1940 -0.2584  0.1321
14264SOL    HW144786   7.324   7.675   4.933  2.1204 -0.7968 -1.2572
14264SOL    HW244787   7.366   7.739   4.803 -1.7854  1.3254 -1.6190
14265SOL     OW44788   7.565   4.720   3.016  0.1508  0.3199  0.6106
14265SOL    HW144789   7.516   4.640   2.996  1.1432 -0.4790  1.2427
14265SOL    HW244790   7.641   4.689   3.065  0.9623  1.5758  0.1912
14266SOL     OW44791   3.737   1.623   5.255  0.0590  0.1178  0.5094
14266SOL    HW144792   3.796   1.660   5.189 -1.1883 -0.0751 -0.7403
14266SOL    HW244793   3.658   1.676   5.250 -0.9777 -1.4152  0.1362
14267SOL     OW44794   4.309   8.844   3.841  0.6299 -0.0807  0.1388
14267SOL    HW144795   4.327   8.759   3.800 -1.3895  0.0927 -1.2909
14267SOL    HW244796   4.330   8.908   3.772  1.8586  0.5983  1.1044
14268SOL     OW44797   2.111   1.207   8.539 -0.2319 -0.5115 -0.1693
14268SOL    HW144798   2.111   1.176   8.629  0.3619 -0.9207 -0.3106
14268SOL    HW244799   2.121   1.302   8.547 -2.2059 -0.2831  0.2650
14269SOL     OW44800   8.235   1.924   5.195  0.3560  0.0925 -0.1653
14269SOL    HW144801   8.179   1.991   5.156  1.7709  2.3921  1.4821
14269SOL    HW244802   8.316   1.929   5.145  0.1219 -1.1941 -0.7053
14270SOL     OW44803   4.770   4.361   8.701 -0.5162 -0.0401  0.2660
14270SOL    HW144804   4.739   4.371   8.611 -2.9927 -0.9435  0.9424
14270SOL    HW244805   4.769   4.266   8.716  0.8435  0.0246  0.9680
14271SOL     OW44806   1.365   4.914   4.326 -0.0690  0.4916  0.3739
14271SOL    HW144807   1.413   4.978   4.379  1.0214 -0.0506  0.0791
14271SOL    HW244808   1.386   4.830   4.366 -1.9738  0.3430  1.1228
14272SOL     OW44809   0.529   5.335   1.542  0.0514  0.4850  0.0564
14272SOL    HW144810   0.614   5.379   1.532 -0.1393  1.1057  1.0355
14272SOL    HW244811   0.465   5.405   1.535 -0.3511  0.1006 -0.1161
14273SOL     OW44812   6.213   6.729   2.900  0.5467  0.8510 -0.2320
14273SOL    HW144813   6.256   6.701   2.981  0.7235  2.1510  0.1506
14273SOL    HW244814   6.156   6.801   2.927  0.0634  0.8268 -1.1550
14274SOL     OW44815   3.276   0.899   5.514 -0.1435 -0.4019 -0.7705
14274SOL    HW144816   3.332   0.851   5.575  0.7137 -0.2798 -1.4490
14274SOL    HW244817   3.302   0.867   5.427  0.3440  1.1504 -1.2241
14275SOL     OW44818   7.134   1.732   2.751 -0.2907 -0.4358  0.5128
14275SOL    HW144819   7.177   1.812   2.783 -0.8389 -0.4655  1.3367
14275SOL    HW244820   7.194   1.699   2.684  0.4886  0.0607  0.9460
14276SOL     OW44821   7.088   5.072   8.487  0.0280  0.5491  0.0980
14276SOL    HW144822   7.026   5.077   8.559 -0.5047 -0.7107 -0.2555
14276SOL    HW244823   7.170   5.106   8.523 -0.1054 -0.5029  1.4429
14277SOL     OW44824   6.615   3.776   6.738  0.0448 -0.1264 -0.0344
14277SOL    HW144825   6.597   3.720   6.662 -0.5950 -1.5416  1.1127
14277SOL    HW244826   6.614   3.865   6.702 -0.1295 -0.7573 -1.7017
14278SOL     OW44827   5.131   5.897   4.453 -0.1467 -0.6082 -0.0725
14278SOL    HW144828   5.090   5.857   4.529 -0.8352 -1.6228 -0.9380
14278SOL    HW244829   5.157   5.985   4.482 -0.7479 -0.8348  1.1985
14279SOL     OW44830   3.463   0.216   8.148 -0.6602 -0.4228 -0.0399
14279SOL    HW144831   3.398   0.173   8.093 -1.5986  2.2665 -1.1975
14279SOL    HW244832   3.535   0.236   8.088 -0.2920 -0.3023  0.4417
14280SOL     OW44833   1.399   3.966   8.708  0.1213 -0.1899  0.1157
14280SOL    HW144834   1.366   3.876   8.717  0.3798 -0.3545 -0.5031
14280SOL    HW244835   1.321   4.017   8.685  0.1383 -0.4295 -0.4967
14281SOL     OW44836   4.301   8.863   2.279 -0.2360 -0.0430  0.0876
14281SOL    HW144837   4.367   8.824   2.221 -1.6891 -1.2585 -0.8086
14281SOL    HW244838   4.349   8.930   2.328  1.6834 -0.9764 -0.4339
14282SOL     OW44839   7.945   3.752   1.345 -0.7307  0.2490  0.0181
14282SOL    HW144840   8.033   3.714   1.342  0.4532  2.8339 -1.3026
14282SOL    HW244841   7.941   3.798   1.429  0.8304  3.4406 -1.4854
14283SOL     OW44842   5.363   5.031   5.697 -0.3290 -0.3938  0.4152
14283SOL    HW144843   5.456   5.037   5.717  0.0843 -0.1712 -1.3900
14283SOL    HW244844   5.346   5.104   5.637 -1.2168 -1.5657 -0.8171
14284SOL     OW44845   1.576   8.599   5.325 -0.6167 -0.0173 -0.7938
14284SOL    HW144846   1.567   8.542   5.249  0.4388 -1.1990 -0.0870
14284SOL    HW244847   1.580   8.687   5.289 -0.0239 -0.5599 -2.1205
14285SOL     OW44848   0.023   7.656   2.593 -0.0861  0.0062  0.3160
14285SOL    HW144849   0.045   7.749   2.591  0.5926 -0.1461  0.1997
14285SOL    HW244850   0.064   7.620   2.514 -1.9521 -0.0728 -0.6662
14286SOL     OW44851   0.581   7.878   0.283  0.6708  0.5666  0.0202
14286SOL    HW144852   0.608   7.917   0.200 -1.9127  0.2835 -1.0235
14286SOL    HW244853   0.488   7.899   0.292  0.3936 -1.0843  1.8814
14287SOL     OW44854   7.986   6.988   5.223  0.1598  0.2866 -0.4891
14287SOL    HW144855   7.961   6.914   5.168 -1.0115  1.6576 -1.8938
14287SOL    HW244856   8.069   6.962   5.263 -0.4013 -1.9149 -0.6186
14288SOL     OW44857   3.317   6.178   8.337 -0.0990  0.4209 -0.4999
14288SOL    HW144858   3.356   6.250   8.287 -0.4713  0.1941 -1.1265
14288SOL    HW244859   3.292   6.113   8.271 -0.7613  0.1941 -0.0404
14289SOL     OW44860   3.895   3.782   6.056  0.5943 -0.4851 -0.2772
14289SOL    HW144861   3.888   3.690   6.079  2.7730 -0.3576  1.2624
14289SOL    HW244862   3.824   3.825   6.104  0.4873 -1.1880  0.1975
14290SOL     OW44863   1.368   1.159   5.827  0.1031 -0.0929  0.6018
14290SOL    HW144864   1.418   1.089   5.868 -0.1333 -0.6812 -0.0861
14290SOL    HW244865   1.281   1.121   5.813 -0.1344  0.4595  0.5468
14291SOL     OW44866   0.509   3.644   3.451 -0.1132 -0.8033  0.6333
14291SOL    HW144867   0.536   3.717   3.507 -0.2996  0.1477 -0.4776
14291SOL    HW244868   0.568   3.573   3.475  0.7727  0.0327  1.0293
14292SOL     OW44869   3.457   6.012   4.761 -0.0820 -0.3556 -0.1776
14292SOL    HW144870   3.545   5.991   4.732  1.3070  1.8790  2.0018
14292SOL    HW244871   3.423   5.930   4.798  1.3874 -1.0489 -0.3125
14293SOL     OW44872   2.847   6.388   8.832 -0.1781  0.4841  0.2791
14293SOL    HW144873   2.809   6.382   8.745  0.1465  3.1451 -0.1509
14293SOL    HW244874   2.902   6.310   8.841 -0.3007  0.1107 -1.8477
14294SOL     OW44875   2.331   1.514   7.517  0.0949 -0.0685  0.2515
14294SOL    HW144876   2.305   1.511   7.609 -1.6020  0.3457 -0.1880
14294SOL    HW244877   2.302   1.430   7.481  0.2431  0.0035 -0.0351
14295SOL     OW44878   0.091   5.919   5.395 -0.1965  0.3241 -0.1848
14295SOL    HW144879   0.179   5.953   5.412 -0.0359 -0.3534  0.3936
14295SOL    HW244880   0.103   5.824   5.388 -0.6735  0.3450 -1.5084
14296SOL     OW44881   6.727   0.003   6.118  0.5386  0.6177 -0.3233
14296SOL    HW144882   6.799  -0.038   6.165 -0.0533 -0.0632  0.0215
14296SOL    HW244883   6.672   0.041   6.186  0.8574  1.6207 -0.6176
14297SOL     OW44884   3.444   3.337   0.092 -0.0238 -0.2146  0.9372
14297SOL    HW144885   3.430   3.423   0.052  0.0920 -0.8722 -0.6017
14297SOL    HW244886   3.516   3.351   0.154  0.4853  0.6627  0.1783
14298SOL     OW44887   8.733   0.752   1.292  0.3639  0.1414 -0.4331
14298SOL    HW144888   8.744   0.844   1.317  0.2659  0.0115  0.1055
14298SOL    HW244889   8.819   0.713   1.305  0.2108 -0.0230  0.1387
14299SOL     OW44890   6.446   5.694   7.724  0.3224  0.0792 -0.5488
14299SOL    HW144891   6.438   5.601   7.742 -1.4134  0.4425  0.7889
14299SOL    HW244892   6.459   5.699   7.629  1.4383 -1.5340 -0.5196
14300SOL     OW44893   7.433   4.386   3.311 -0.0295  0.1166  0.7815
14300SOL    HW144894   7.472   4.393   3.399 -0.2718 -1.0994  1.0013
14300SOL    HW244895   7.427   4.292   3.295  0.5555  0.3182 -0.8014
14301SOL     OW44896   1.994   8.279   0.195  0.3395 -0.0841  0.0932
14301SOL    HW144897   1.999   8.280   0.291  3.2130  0.4920  0.0383
14301SOL    HW244898   1.981   8.371   0.171 -1.0854 -0.3186 -0.0765
14302SOL     OW44899   4.462   7.929   5.595 -0.2314  0.0220 -0.2364
14302SOL    HW144900   4.488   7.972   5.677 -1.5057  0.8798 -0.2371
14302SOL    HW244901   4.394   7.987   5.559 -0.3961 -0.8602 -1.3992
14303SOL     OW44902   5.676   7.575   2.978  0.8004  0.6002 -0.8377
14303SOL    HW144903   5.600   7.540   2.931  1.4094 -0.1131 -1.3234
14303SOL    HW244904   5.640   7.614   3.057  0.1026 -1.4896 -0.0590
14304SOL     OW44905   3.351   5.251   3.029 -0.4325 -0.4867 -0.3273
14304SOL    HW144906   3.341   5.158   3.006 -0.2521 -1.3661  2.7218
14304SOL    HW244907   3.446   5.266   3.027 -0.5114 -0.0582 -1.7544
14305SOL     OW44908   3.081   2.637   3.444 -0.0168  0.1762  0.2975
14305SOL    HW144909   3.069   2.542   3.438  0.8528  0.0943 -0.4881
14305SOL    HW244910   3.153   2.655   3.383  0.4035  1.2284  1.0791
14306SOL     OW44911   2.292   8.871   4.619 -0.4964 -0.3157 -0.1134
14306SOL    HW144912   2.219   8.853   4.678 -0.6712  0.2826 -0.1354
14306SOL    HW244913   2.261   8.842   4.533 -0.7344 -0.0076 -0.1334
14307SOL     OW44914   6.993   0.171   0.190  0.0512 -0.3341  0.2398
14307SOL    HW144915   6.899   0.159   0.173  0.6263 -1.9843 -2.4118
14307SOL    HW244916   7.020   0.240   0.129  0.9804 -1.7240 -1.0066
14308SOL     OW44917   3.083   2.594   7.515  0.4330  0.2043  0.0760
14308SOL    HW144918   3.021   2.645   7.568  0.3648 -0.4234  0.6141
14308SOL    HW244919   3.096   2.513   7.565  0.3290 -0.4219 -0.8944
14309SOL     OW44920   1.042   8.501   6.820  0.6178 -0.1786  0.1307
14309SOL    HW144921   1.065   8.412   6.795 -1.2311 -0.8947  0.7798
14309SOL    HW244922   0.972   8.526   6.760  1.7239  1.2187 -0.6379
14310SOL     OW44923   3.366   4.951   3.816  0.3146 -0.1726  0.2737
14310SOL    HW144924   3.386   4.973   3.726  2.7311 -3.0933 -0.0584
14310SOL    HW244925   3.438   4.989   3.867 -0.7907  1.0686  0.9691
14311SOL     OW44926   5.275   6.181   5.432  0.1362  0.0169  0.2380
14311SOL    HW144927   5.332   6.171   5.356  1.0668  1.1965  0.7507
14311SOL    HW244928   5.275   6.275   5.449  1.6560 -0.3860  2.9643
14312SOL     OW44929   6.001   3.724   4.641  0.8775 -0.5023 -0.5099
14312SOL    HW144930   6.050   3.700   4.562  2.7334  0.7208  0.1946
14312SOL    HW244931   6.029   3.660   4.707 -0.5080 -1.3903 -0.7293
14313SOL     OW44932   6.191   2.755   5.328 -0.0460 -0.1539 -0.2052
14313SOL    HW144933   6.231   2.797   5.403 -1.3016  0.8503 -0.0624
14313SOL    HW244934   6.191   2.661   5.349  1.1075 -0.0517  0.2903
14314SOL     OW44935   2.312   8.683   2.679 -0.3050 -0.3721 -0.1042
14314SOL    HW144936   2.272   8.753   2.731  1.7942  0.6859  0.2132
14314SOL    HW244937   2.277   8.695   2.591  0.7021  1.7586 -0.2796
14315SOL     OW44938   6.691   4.427   7.179 -0.0999  0.0528 -0.0248
14315SOL    HW144939   6.713   4.491   7.112 -1.8479 -0.6823 -1.3632
14315SOL    HW244940   6.736   4.347   7.151  0.0574  0.0273  0.2932
14316SOL     OW44941   4.907   4.334   5.091  0.3520  0.1397  0.0488
14316SOL    HW144942   4.972   4.278   5.131  1.4895  2.1435  1.1878
14316SOL    HW244943   4.850   4.360   5.163  0.3758  1.1123 -0.2615
14317SOL     OW44944   6.285   3.622   5.536  0.4509 -0.6492 -0.2575
14317SOL    HW144945   6.273   3.590   5.447  0.5876 -0.8957 -0.1891
14317SOL    HW244946   6.197   3.630   5.571  0.4280 -1.4682 -0.0964
14318SOL     OW44947   5.051   1.773   1.416  0.1219  0.5942  0.5119
14318SOL    HW144948   5.034   1.698   1.360 -0.2620  0.6846  0.5019
14318SOL    HW244949   5.146   1.773   1.429  0.3415  1.1228 -0.9123
14319SOL     OW44950   1.574   0.947   3.190 -0.5194 -0.1569 -0.1937
14319SOL    HW144951   1.548   0.857   3.206 -1.2178  0.4627  2.7857
14319SOL    HW244952   1.509   1.000   3.235 -0.2264  1.9021 -1.9772
14320SOL     OW44953   6.266   1.599   0.318 -0.4053  0.1401 -0.0607
14320SOL    HW144954   6.334   1.548   0.362 -1.1280 -0.9573 -0.1674
14320SOL    HW244955   6.204   1.621   0.387  0.2446  1.5217  0.1241
14321SOL     OW44956   5.355   4.599   0.676  0.8007 -0.1112  0.0218
14321SOL    HW144957   5.270   4.558   0.662 -0.1190  1.5653  0.3239
14321SOL    HW244958   5.365   4.604   0.771  2.8177 -3.2452  0.1076
14322SOL     OW44959   2.335   5.279   6.705  0.7000 -0.5069 -0.0291
14322SOL    HW144960   2.355   5.326   6.787  0.4656  0.1460 -0.3354
14322SOL    HW244961   2.404   5.306   6.645 -0.9646  1.7134 -1.0748
14323SOL     OW44962   1.566   1.627   6.554 -0.5149 -0.6022 -0.0770
14323SOL    HW144963   1.624   1.697   6.582 -0.0091 -0.7796 -0.6705
14323SOL    HW244964   1.498   1.670   6.502 -0.7094 -0.4447  0.3027
14324SOL     OW44965   1.947   2.372   6.751  0.1643  0.3747  0.1993
14324SOL    HW144966   1.937   2.290   6.800 -1.1832  1.2126  1.3892
14324SOL    HW244967   2.040   2.395   6.762  0.3305 -0.4902  0.6588
14325SOL     OW44968   5.394   1.224   8.497  0.4130  0.1643 -0.4790
14325SOL    HW144969   5.373   1.150   8.440  1.0908 -0.0070 -0.5117
14325SOL    HW244970   5.313   1.276   8.500 -1.2308 -2.2221  2.1390
14326SOL     OW44971   8.780   6.368   6.111  0.2704 -0.4917 -0.1138
14326SOL    HW144972   8.864   6.408   6.132 -0.5455  0.5328  1.4087
14326SOL    HW244973   8.801   6.277   6.088  1.5698 -1.1419  3.1660
14327SOL     OW44974   4.500   4.755   0.244  0.4410  0.0820 -0.4147
14327SOL    HW144975   4.587   4.760   0.203  0.1376 -0.0586 -1.0850
14327SOL    HW244976   4.454   4.833   0.213 -0.0889 -0.4718 -1.0440
14328SOL     OW44977   3.830   3.347   5.488  0.0800  0.7996 -0.0965
14328SOL    HW144978   3.867   3.382   5.569  1.4654  0.0271 -0.3645
14328SOL    HW244979   3.759   3.290   5.517  0.2361  0.9277  0.5558
14329SOL     OW44980   1.087   5.907   4.834 -0.2336  0.2202 -0.2065
14329SOL    HW144981   1.045   5.911   4.749 -2.7011 -0.7691  0.8658
14329SOL    HW244982   1.038   5.969   4.888  1.4626  1.0421  0.4526
14330SOL     OW44983   4.294   8.269   4.981 -0.0732  0.0089  0.4543
14330SOL    HW144984   4.275   8.251   5.073  1.7986 -0.4163  0.8149
14330SOL    HW244985   4.235   8.211   4.933 -0.5409 -0.3394  1.4040
14331SOL     OW44986   1.805   6.355   6.402  0.3217  0.0066  0.3562
14331SOL    HW144987   1.739   6.350   6.333 -1.0357 -0.8210  1.6468
14331SOL    HW244988   1.815   6.449   6.419  0.3171  0.1914 -0.6048
14332SOL     OW44989   4.129   7.954   5.651  0.4078  0.2739 -0.2271
14332SOL    HW144990   4.039   7.921   5.647  0.1281  0.9182  0.6647
14332SOL    HW244991   4.180   7.879   5.681 -0.1788  0.5076  1.4616
14333SOL     OW44992   6.307   7.513   4.836 -0.2782  0.0364 -0.5296
14333SOL    HW144993   6.342   7.424   4.845 -0.9285 -0.0237  2.0611
14333SOL    HW244994   6.381   7.564   4.801  0.8903 -1.0445  0.2842
14334SOL     OW44995   4.812   2.258   7.452 -0.2380 -0.0417 -0.1561
14334SOL    HW144996   4.787   2.252   7.360 -0.7462  1.6554 -0.1646
14334SOL    HW244997   4.834   2.350   7.465 -2.3658  0.2837  1.9485
14335SOL     OW44998   2.384   4.566   2.804 -0.2304 -0.6217  0.0417
14335SOL    HW144999   2.460   4.579   2.748  0.3975  1.3250  1.2529
14335SOL    HW245000   2.336   4.649   2.799 -0.2599 -0.4500  2.1685
14336SOL     OW45001   0.311   6.606   6.610  0.5678  0.5244 -0.7075
14336SOL    HW145002   0.293   6.570   6.523 -2.5482 -0.0650  0.0779
14336SOL    HW245003   0.349   6.532   6.659  2.8750  1.0132 -1.6287
14337SOL     OW45004   3.622   0.368   6.627  0.2587 -0.3339  0.4830
14337SOL    HW145005   3.650   0.426   6.556  0.0242  0.9048  1.3737
14337SOL    HW245006   3.676   0.289   6.616 -0.6016 -0.7030 -1.7816
14338SOL     OW45007   2.722   3.168   6.921 -0.1323  0.0187  0.4129
14338SOL    HW145008   2.781   3.242   6.937  0.7426 -0.6979  0.5571
14338SOL    HW245009   2.780   3.094   6.904 -0.9743 -0.0772 -2.6057
14339SOL     OW45010   7.645   8.285   4.935  0.3274  0.0909 -0.0172
14339SOL    HW145011   7.626   8.198   4.970 -0.6032  0.7124  1.0878
14339SOL    HW245012   7.739   8.296   4.947  0.4047 -0.6573  0.0851
14340SOL     OW45013   0.196   5.334   3.097 -0.0619  0.2754  0.4130
14340SOL    HW145014   0.261   5.381   3.149 -1.2894  2.3129  0.2085
14340SOL    HW245015   0.149   5.402   3.050 -1.5896 -1.2251 -0.3528
14341SOL     OW45016   0.978   7.989   6.472 -0.9111 -0.0042  0.3833
14341SOL    HW145017   0.898   7.936   6.472 -0.5966 -0.4733  0.3912
14341SOL    HW245018   0.975   8.035   6.388  0.3546 -2.3617 -1.0585
14342SOL     OW45019   8.276   5.900   4.665  0.5736  0.5636  0.1992
14342SOL    HW145020   8.317   5.981   4.636 -0.5443  1.7488  1.7411
14342SOL    HW245021   8.193   5.927   4.703 -0.4545 -1.4742 -0.4461
14343SOL     OW45022   2.667   0.795   1.556  0.1705 -0.3968 -0.1635
14343SOL    HW145023   2.583   0.832   1.527 -0.2709 -1.2669 -0.0259
14343SOL    HW245024   2.731   0.863   1.536 -0.6789  0.6359  0.5132
14344SOL     OW45025   3.664   0.992   1.238  0.2809 -0.2876 -0.5133
14344SOL    HW145026   3.603   1.008   1.166  0.5609 -0.9870 -0.9185
14344SOL    HW245027   3.748   1.028   1.207 -0.1348  1.6796  0.4847
14345SOL     OW45028   8.127   5.958   1.895 -0.1586  0.1356 -0.2324
14345SOL    HW145029   8.113   5.927   1.985  0.0736  0.3304 -0.1276
14345SOL    HW245030   8.039   5.979   1.863 -0.0824  1.8230  0.5861
14346SOL     OW45031   3.747   1.598   1.339 -0.4212  0.1507 -0.6822
14346SOL    HW145032   3.815   1.533   1.356 -0.8879 -0.4963 -1.2003
14346SOL    HW245033   3.713   1.621   1.425  1.6361  1.8279 -0.2512
14347SOL     OW45034   4.809   5.280   8.468  0.0115 -0.0059  0.3433
14347SOL    HW145035   4.875   5.298   8.401 -0.1260 -2.0723 -0.4319
14347SOL    HW245036   4.766   5.200   8.438 -0.0106 -1.0558  2.9273
14348SOL     OW45037   7.915   5.772   4.899 -0.0073  0.1646 -0.5271
14348SOL    HW145038   7.835   5.808   4.860 -0.8376  0.0515  0.9779
14348SOL    HW245039   7.952   5.717   4.831 -2.1841 -1.1818 -0.7363
14349SOL     OW45040   5.458   4.017   5.971  0.5218 -0.0895 -0.3577
14349SOL    HW145041   5.505   3.943   5.934  1.2943 -0.2878  0.9744
14349SOL    HW245042   5.418   3.984   6.051 -1.4548  0.2274 -1.1459
14350SOL     OW45043   8.174   1.063   3.777  0.4344 -0.2411 -0.2037
14350SOL    HW145044   8.101   1.123   3.763  0.3498 -0.2713  0.0955
14350SOL    HW245045   8.208   1.087   3.863  0.7925 -0.2117 -0.3510
14351SOL     OW45046   1.265   7.645   0.870 -0.0123 -0.6513  0.2832
14351SOL    HW145047   1.312   7.593   0.935  1.0011 -0.3632 -0.1953
14351SOL    HW245048   1.329   7.711   0.842  0.0023 -1.5136 -1.8944
14352SOL     OW45049   2.157   5.091   4.923 -0.2754 -0.4982  0.3082
14352SOL    HW145050   2.116   5.066   5.005 -1.0182 -0.9388 -0.1910
14352SOL    HW245051   2.110   5.170   4.895 -0.6674 -0.8936 -0.1682
14353SOL     OW45052   2.028   5.038   2.136 -0.2096 -0.3849  0.5096
14353SOL    HW145053   1.943   5.072   2.164 -0.9782 -0.4885 -1.5288
14353SOL    HW245054   2.049   4.970   2.200 -1.3222  0.1130  1.4376
14354SOL     OW45055   2.193   7.266   1.583  0.7056 -0.0783  0.9077
14354SOL    HW145056   2.098   7.264   1.596  0.7695  1.2049  1.7199
14354SOL    HW245057   2.227   7.308   1.661  2.1659 -2.4104  1.6342
14355SOL     OW45058   7.823   0.293   0.196  0.0721  0.2077  0.5177
14355SOL    HW145059   7.798   0.210   0.235 -3.1613  1.1580  0.7589
14355SOL    HW245060   7.792   0.289   0.106  0.1446  1.0470  0.4419
14356SOL     OW45061   4.177   1.881   4.837 -0.3890 -0.5088  0.0201
14356SOL    HW145062   4.087   1.876   4.803  0.7485 -0.5653 -3.3222
14356SOL    HW245063   4.195   1.975   4.842 -0.7655 -0.4796  1.2737
14357SOL     OW45064   7.902   4.037   4.504  0.3130  0.1087 -0.8775
14357SOL    HW145065   7.856   3.973   4.559  0.5465  0.1068 -0.6827
14357SOL    HW245066   7.986   3.996   4.486  0.5650  0.4674 -0.5400
14358SOL     OW45067   3.428   8.371   4.938 -0.1342 -0.3859 -0.4554
14358SOL    HW145068   3.437   8.389   5.031 -0.5640  1.4616 -0.7401
14358SOL    HW245069   3.341   8.405   4.916  0.7978  1.1787 -1.9390
14359SOL     OW45070   5.930   1.045   0.041  0.5067 -0.0949  0.0053
14359SOL    HW145071   5.863   1.047   0.110  0.9692  2.0600  0.4636
14359SOL    HW245072   5.960   0.954   0.039  0.6331 -0.2064  2.8212
14360SOL     OW45073   1.059   8.665   6.513 -0.9671 -0.1962  0.7309
14360SOL    HW145074   0.993   8.606   6.477 -0.2990  0.2427 -1.3816
14360SOL    HW245075   1.043   8.665   6.607 -2.2680 -2.1459  0.5632
14361SOL     OW45076   3.739   5.199   8.556  0.1569  0.0323 -0.3566
14361SOL    HW145077   3.683   5.276   8.562 -0.7127 -0.5943 -0.2642
14361SOL    HW245078   3.687   5.134   8.508  0.9490 -0.4315 -0.6097
14362SOL     OW45079   1.400   7.649   8.674  0.1105 -0.4358  0.2065
14362SOL    HW145080   1.327   7.691   8.720 -1.4414  1.1669 -3.3596
14362SOL    HW245081   1.466   7.718   8.667  1.3356 -1.3665  1.9014
14363SOL     OW45082   5.153   0.292   2.508 -0.1946 -0.3825  0.7306
14363SOL    HW145083   5.090   0.220   2.501 -1.2792  0.4831  1.2032
14363SOL    HW245084   5.142   0.324   2.598 -1.8545  2.1921 -0.2728
14364SOL     OW45085   4.633   2.222   1.361  0.3887 -0.0755 -0.2553
14364SOL    HW145086   4.556   2.166   1.360  0.0080  0.4077  0.6894
14364SOL    HW245087   4.680   2.200   1.281 -0.6588 -0.4736 -0.7770
14365SOL     OW45088   4.810   3.082   7.673 -0.5789 -0.2289  0.7584
14365SOL    HW145089   4.826   3.040   7.588 -0.3994 -0.2631  0.8100
14365SOL    HW245090   4.752   3.021   7.719  0.4756 -0.9063  1.2254
14366SOL     OW45091   5.483   6.616   2.089  0.0199  0.0815  0.0847
14366SOL    HW145092   5.496   6.695   2.142  1.7225 -0.5916  0.7158
14366SOL    HW245093   5.556   6.559   2.112  0.0722 -0.7863 -2.0130
14367SOL     OW45094   7.034   0.280   5.110 -0.6778 -0.2683 -0.0860
14367SOL    HW145095   6.969   0.210   5.107 -0.0975 -0.7835 -1.1856
14367SOL    HW245096   7.018   0.324   5.194 -3.0684  0.2598 -0.7592
14368SOL     OW45097   7.389   1.945   6.215 -0.0716  0.2955 -0.0872
14368SOL    HW145098   7.303   1.929   6.175 -0.3855  0.6029  0.4480
14368SOL    HW245099   7.449   1.950   6.141 -0.1064 -2.2529 -0.3731
14369SOL     OW45100   8.254   4.220   6.934 -0.8623 -0.8488  0.7792
14369SOL    HW145101   8.175   4.238   6.884 -0.2843 -0.7605 -0.1331
14369SOL    HW245102   8.247   4.277   7.011 -0.7067  0.7508 -0.3416
14370SOL     OW45103   8.100   5.640   1.006  0.3426  0.0619  0.0022
14370SOL    HW145104   8.134   5.664   1.092  1.4001  0.0092 -0.3894
14370SOL    HW245105   8.042   5.565   1.023 -0.7968  1.0876  0.8712
14371SOL     OW45106   0.820   3.455   2.367 -0.6107 -0.0723 -0.1065
14371SOL    HW145107   0.905   3.414   2.347 -0.2794  0.8378 -0.6126
14371SOL    HW245108   0.810   3.444   2.461  0.2584  0.1436  0.0212
14372SOL     OW45109   2.312   4.138   1.224 -0.3596  0.4514 -0.0289
14372SOL    HW145110   2.323   4.197   1.150  2.6506 -2.5492 -2.2983
14372SOL    HW245111   2.264   4.063   1.187 -2.5401  0.5576  2.2768
14373SOL     OW45112   3.971   1.531   0.466  0.1255 -0.1843  0.0812
14373SOL    HW145113   3.934   1.455   0.423 -1.1875  0.1193  0.5969
14373SOL    HW245114   3.899   1.565   0.520  1.1348  0.5236  1.0421
14374SOL     OW45115   6.830   3.818   2.262  0.2056  0.3599 -0.3598
14374SOL    HW145116   6.796   3.794   2.348 -0.0090  2.5182  0.2168
14374SOL    HW245117   6.766   3.880   2.227  0.4005 -0.3100 -2.0171
14375SOL     OW45118   0.700   3.114   1.384 -0.4302  0.9557  0.2344
14375SOL    HW145119   0.692   3.193   1.330  1.1371  0.5712 -0.6124
14375SOL    HW245120   0.615   3.071   1.375 -0.5440  1.3963 -1.1782
14376SOL     OW45121   0.837   3.646   5.338  0.2275 -0.1936  0.4804
14376SOL    HW145122   0.761   3.675   5.387  0.3471 -1.2299  1.3325
14376SOL    HW245123   0.855   3.557   5.371  0.4002 -0.8939 -1.3444
14377SOL     OW45124   0.176   3.072   1.282  0.2192 -0.4112 -0.0601
14377SOL    HW145125   0.158   3.154   1.237  0.1496  0.6642  1.8312
14377SOL    HW245126   0.144   3.086   1.371  0.5284 -2.3742  0.4015
14378SOL     OW45127   5.175   3.377   8.252  0.3009 -0.4264 -0.1661
14378SOL    HW145128   5.208   3.312   8.191  0.7265 -0.8022  0.4558
14378SOL    HW245129   5.244   3.386   8.318 -0.3151 -0.3216  0.4775
14379SOL     OW45130   7.193   1.488   7.841  0.5828 -0.2669  0.2319
14379SOL    HW145131   7.213   1.551   7.771 -0.6801  1.4073  1.2763
14379SOL    HW245132   7.267   1.493   7.900  2.0275 -2.2634 -1.2741
14380SOL     OW45133   0.419   4.357   2.491 -0.5636 -0.1339 -0.3265
14380SOL    HW145134   0.474   4.388   2.418 -0.3070  0.9268  0.3009
14380SOL    HW245135   0.407   4.434   2.546 -0.8852 -0.8938  0.6839
14381SOL     OW45136   2.747   4.578   6.214 -0.0000 -0.0457  0.1206
14381SOL    HW145137   2.800   4.534   6.281 -2.1450 -2.2922  0.4998
14381SOL    HW245138   2.722   4.661   6.254  0.4587 -0.4316  1.2550
14382SOL     OW45139   4.472   7.884   6.043  0.4165  0.0575 -0.1554
14382SOL    HW145140   4.416   7.820   6.087  1.9912  0.3126  2.4727
14382SOL    HW245141   4.555   7.880   6.091  1.4708  2.1762 -1.6292
14383SOL     OW45142   2.090   8.681   4.553 -0.1156  0.5169  0.1039
14383SOL    HW145143   2.035   8.634   4.616  0.5753 -1.4820 -0.6900
14383SOL    HW245144   2.172   8.632   4.551  0.0762  0.8095 -1.9565
14384SOL     OW45145   3.444   0.738   6.670  0.3301 -0.0660  0.6339
14384SOL    HW145146   3.471   0.733   6.762 -0.7398 -0.4960  0.9422
14384SOL    HW245147   3.349   0.723   6.672  0.2530  0.1806 -0.5173
14385SOL     OW45148   8.462   7.895   8.169 -0.3477 -0.0567 -0.0014
14385SOL    HW145149   8.511   7.966   8.129  0.1406  1.0374  2.3367
14385SOL    HW245150   8.417   7.936   8.243 -0.8132 -1.9940  0.8505
14386SOL     OW45151   1.809   8.679   7.559 -0.1781 -0.2293  0.4071
14386SOL    HW145152   1.892   8.718   7.532 -0.6360  0.1115 -0.5411
14386SOL    HW245153   1.797   8.604   7.501 -1.0980  0.4237 -0.2828
14387SOL     OW45154   8.043   6.943   6.997 -0.0948  0.2240  0.4542
14387SOL    HW145155   7.997   6.908   7.074  1.6274 -4.9527 -0.4309
14387SOL    HW245156   8.133   6.911   7.008  0.0836 -1.3601 -3.8892
14388SOL     OW45157   5.172   6.571   5.973  0.6949  0.2092  0.0342
14388SOL    HW145158   5.086   6.544   5.939  2.1939 -4.4043 -0.8437
14388SOL    HW245159   5.211   6.621   5.902 -0.3270  0.1559 -0.5933
14389SOL     OW45160   4.411   2.801   0.032 -0.3467  0.0429 -0.1346
14389SOL    HW145161   4.406   2.744  -0.045  1.8092  0.8331 -0.9296
14389SOL    HW245162   4.401   2.890  -0.003 -1.7966  0.2889  0.8429
14390SOL     OW45163   4.046   7.263   0.517  0.0267 -0.1212  0.3122
14390SOL    HW145164   3.990   7.340   0.504  0.3451  0.2345  0.9853
14390SOL    HW245165   4.133   7.292   0.490 -0.0886 -0.6455 -0.6490
14391SOL     OW45166   0.726   6.235   1.229 -0.0502 -0.7666  0.7738
14391SOL    HW145167   0.787   6.203   1.162  0.3258  3.0974 -1.0044
14391SOL    HW245168   0.779   6.237   1.309  0.3782 -2.7219  0.5929
14392SOL     OW45169   3.824   4.084   5.370  0.7489  0.6184 -0.4090
14392SOL    HW145170   3.768   4.035   5.431  0.2018  2.1994  0.4098
14392SOL    HW245171   3.773   4.090   5.290  1.1858 -0.8787 -0.8312
14393SOL     OW45172   7.342   7.179   5.192 -0.4506  0.1789 -0.8469
14393SOL    HW145173   7.412   7.119   5.167  1.4866  1.7310  0.4883
14393SOL    HW245174   7.340   7.176   5.288 -1.8197  0.6274 -0.8339
14394SOL     OW45175   7.733   5.920   4.703  0.1556 -0.5969  0.0494
14394SOL    HW145176   7.778   5.990   4.655  0.3551  0.0168  1.1078
14394SOL    HW245177   7.757   5.840   4.657 -0.5288  0.0577 -1.5405
14395SOL     OW45178   7.440   5.813   6.965  0.1863 -0.0036 -0.0901
14395SOL    HW145179   7.407   5.768   7.043  0.3116 -1.2204 -0.7230
14395SOL    HW245180   7.451   5.744   6.900  1.9306  0.6925 -0.5933
14396SOL     OW45181   5.506   6.623   4.589 -0.0087 -0.3477  0.2655
14396SOL    HW145182   5.458   6.605   4.508 -0.1971  1.5502 -0.0988
14396SOL    HW245183   5.596   6.637   4.560  0.3261 -1.6080  0.6551
14397SOL     OW45184   3.668   0.138   1.204 -0.1803 -0.1790 -0.3681
14397SOL    HW145185   3.615   0.087   1.265  1.7092 -1.7415  0.0460
14397SOL    HW245186   3.703   0.073   1.143  0.7631  0.8902 -0.9999
14398SOL     OW45187   1.785   0.600   6.116  0.5323  0.3397  0.0281
14398SOL    HW145188   1.881   0.590   6.117  0.4142 -0.9075  0.7327
14398SOL    HW245189   1.754   0.536   6.180 -0.8500  0.0092 -0.9461
14399SOL     OW45190   3.624   5.442   6.403 -0.2977  0.1282  0.0559
14399SOL    HW145191   3.570   5.402   6.335  1.7738 -1.2396 -0.9123
14399SOL    HW245192   3.629   5.534   6.379 -1.7768  0.1989 -0.0770
14400SOL     OW45193   1.678   2.701   2.230 -0.4058 -0.0674 -0.2767
14400SOL    HW145194   1.690   2.606   2.226 -0.6258 -0.2538  2.0650
14400SOL    HW245195   1.624   2.721   2.154 -0.7673 -1.8976 -0.5605
14401SOL     OW45196   7.567   5.968   3.750  0.2531 -0.0340 -0.0941
14401SOL    HW145197   7.550   5.991   3.659 -0.0073  1.1038  0.2276
14401SOL    HW245198   7.608   5.882   3.746  0.6072  0.1761 -1.3127
14402SOL     OW45199   8.563   1.971   3.281 -0.0656  0.2818 -0.0913
14402SOL    HW145200   8.622   1.987   3.355 -0.5699 -1.5105  0.7555
14402SOL    HW245201   8.607   1.903   3.230 -0.7626 -0.0956 -0.1935
14403SOL     OW45202   8.195   1.674   4.524 -0.5602 -0.6686  0.6004
14403SOL    HW145203   8.260   1.739   4.550 -3.3116  2.2833  0.6058
14403SOL    HW245204   8.144   1.658   4.603 -2.1040 -0.0998 -0.2462
14404SOL     OW45205   1.000   4.419   4.620  0.6803 -0.0394 -0.9674
14404SOL    HW145206   1.073   4.447   4.676  0.7048 -0.3597 -0.8345
14404SOL    HW245207   1.020   4.456   4.534  0.6102  0.5140 -0.7510
14405SOL     OW45208   5.757   8.103   7.765  0.2115  0.4277 -0.2651
14405SOL    HW145209   5.684   8.160   7.743 -1.0683 -0.8205  0.5795
14405SOL    HW245210   5.822   8.162   7.805 -0.5117  1.4715 -0.5826
14406SOL     OW45211   2.255   7.402   4.381  0.7125  0.1658  0.4699
14406SOL    HW145212   2.336   7.438   4.343  0.4632 -0.9663 -1.2634
14406SOL    HW245213   2.227   7.469   4.443  0.9520  2.4090 -1.6314
14407SOL     OW45214   3.983   5.629   3.161  0.2125  0.1635 -0.3305
14407SOL    HW145215   3.969   5.605   3.252 -0.5284 -0.1007 -0.5139
14407SOL    HW245216   4.008   5.722   3.164 -0.6732  0.3926  0.0713
14408SOL     OW45217   2.995   8.200   2.329  0.0626 -0.5240  0.4422
14408SOL    HW145218   3.051   8.148   2.272 -0.1965  0.9770 -1.2715
14408SOL    HW245219   3.054   8.267   2.365  0.0376 -0.9424  1.2862
14409SOL     OW45220   5.697   3.273   0.473 -0.1115  0.4135 -0.2582
14409SOL    HW145221   5.665   3.289   0.384  1.4303  1.1440 -0.7197
14409SOL    HW245222   5.732   3.184   0.470 -0.3806  0.3093 -0.2888
14410SOL     OW45223   3.246   3.735   8.368 -0.1812  0.0362  0.2206
14410SOL    HW145224   3.297   3.681   8.428 -0.6957 -1.4241 -0.6107
14410SOL    HW245225   3.232   3.680   8.291  0.5323  1.8876 -1.3091
14411SOL     OW45226   2.812   4.154   4.040 -0.1730  0.0476 -0.1744
14411SOL    HW145227   2.740   4.172   4.101 -0.0744  0.0337 -0.0533
14411SOL    HW245228   2.793   4.208   3.963 -0.6550 -0.4400 -0.4052
14412SOL     OW45229   0.450   8.629   4.740 -0.1632  0.0563 -0.2570
14412SOL    HW145230   0.495   8.547   4.756 -1.4057 -0.9810 -1.7593
14412SOL    HW245231   0.466   8.648   4.648 -2.8953 -0.5098 -0.9492
14413SOL     OW45232   6.896   3.745   0.022  0.1872  0.0632  0.1686
14413SOL    HW145233   6.874   3.699  -0.059  2.6354  0.1315 -0.6371
14413SOL    HW245234   6.914   3.676   0.085  1.3666 -0.1145 -0.3156
14414SOL     OW45235   1.217   8.095   6.005  0.5243  0.0237 -0.3032
14414SOL    HW145236   1.312   8.103   6.016  0.3946  2.2646 -0.2922
14414SOL    HW245237   1.181   8.159   6.066 -0.9105  0.3451 -1.4346
14415SOL     OW45238   8.437   2.963   4.405  0.2010 -0.5912  0.3335
14415SOL    HW145239   8.392   2.899   4.350 -0.4683 -0.9384  1.2512
14415SOL    HW245240   8.529   2.953   4.384  0.2088 -2.5225  1.0888
14416SOL     OW45241   8.433   5.060   4.744 -0.4558  0.0591  0.2669
14416SOL    HW145242   8.364   5.000   4.772 -0.2562 -0.4324 -0.2673
14416SOL    HW245243   8.438   5.048   4.649 -0.6886  1.2193  0.0999
14417SOL     OW45244   6.016   1.101   4.613 -0.3896  0.9560  0.4800
14417SOL    HW145245   6.054   1.071   4.695 -1.5032  0.5208  0.8522
14417SOL    HW245246   5.954   1.169   4.638 -1.0048  0.5714  0.0483
14418SOL     OW45247   6.776   4.987   7.591  0.2770  0.0954 -0.3049
14418SOL    HW145248   6.722   4.956   7.519  1.2597  0.1297 -1.0752
14418SOL    HW245249   6.782   5.082   7.578  2.2867 -0.1517 -1.5058
14419SOL     OW45250   0.669   7.636   2.193 -0.0311  0.3514 -0.0936
14419SOL    HW145251   0.577   7.619   2.215 -0.1651  0.9579 -0.1819
14419SOL    HW245252   0.704   7.550   2.168 -0.6552  0.1766 -0.3727
14420SOL     OW45253   1.908   7.209   1.612  0.0407 -0.1280 -0.0757
14420SOL    HW145254   1.872   7.253   1.689 -1.8887 -0.2175 -0.8742
14420SOL    HW245255   1.883   7.265   1.538  0.6251 -0.7729 -0.7852
14421SOL     OW45256   6.272   6.841   7.578 -0.1064 -0.1759 -0.5765
14421SOL    HW145257   6.200   6.778   7.579 -0.8862  0.6724 -1.2157
14421SOL    HW245258   6.348   6.792   7.611 -0.9436 -1.1191  0.0111
14422SOL     OW45259   4.983   6.803   8.408  0.9692  0.4293  0.0123
14422SOL    HW145260   4.962   6.790   8.315  2.5576 -2.4725 -0.0601
14422SOL    HW245261   5.053   6.868   8.407  0.8701  0.5344 -0.8088
14423SOL     OW45262   3.275   7.039   2.426  0.5614 -0.0445 -0.2237
14423SOL    HW145263   3.218   7.052   2.350  1.4155  1.5174 -0.6483
14423SOL    HW245264   3.344   6.981   2.394 -0.1794 -1.0747 -0.0122
14424SOL     OW45265   2.559   1.277   2.008  1.2368 -0.5694 -0.3194
14424SOL    HW145266   2.633   1.337   2.016  0.6606  0.0672  0.4380
14424SOL    HW245267   2.508   1.312   1.934 -0.0078  0.9461  1.1707
14425SOL     OW45268   5.562   0.212   5.290 -0.4243 -0.6756 -0.0402
14425SOL    HW145269   5.586   0.296   5.251 -1.8746  0.0011  0.4418
14425SOL    HW245270   5.604   0.146   5.234  1.2202  0.3650 -0.0840
14426SOL     OW45271   2.091   7.180   3.173 -0.1598 -0.8603 -0.1316
14426SOL    HW145272   2.162   7.240   3.151 -0.3991 -0.7826 -0.7240
14426SOL    HW245273   2.051   7.217   3.252 -0.9402  0.3358 -1.0518
14427SOL     OW45274   6.676   6.795   2.932 -0.3345  0.9358  0.5300
14427SOL    HW145275   6.720   6.837   3.006  0.7825  0.9527 -0.1214
14427SOL    HW245276   6.723   6.713   2.919 -0.1396  1.2005 -0.5205
14428SOL     OW45277   6.779   5.681   5.885 -0.0118 -0.4656 -0.1764
14428SOL    HW145278   6.782   5.754   5.823  1.7901  0.8047  1.2761
14428SOL    HW245279   6.725   5.614   5.842  0.9842  0.4158 -2.9789
14429SOL     OW45280   0.767   7.124   2.071 -0.1508 -0.0799 -0.5376
14429SOL    HW145281   0.768   7.123   1.975  1.2670 -2.1216 -0.5586
14429SOL    HW245282   0.849   7.168   2.096 -0.6665  0.7366 -0.2306
14430SOL     OW45283   6.184   8.829   3.344  0.3802  0.5337 -0.1292
14430SOL    HW145284   6.128   8.828   3.266  1.1107  0.1402 -0.6685
14430SOL    HW245285   6.160   8.751   3.392  2.5391 -1.4065 -1.9311
14431SOL     OW45286   0.300   0.586   8.269 -0.0933  0.2113  0.2166
14431SOL    HW145287   0.388   0.579   8.232  0.1263  0.2357  0.7331
14431SOL    HW245288   0.242   0.580   8.193  0.1796 -3.3183  0.1568
14432SOL     OW45289   4.027   2.800   0.118  0.3390  0.8139  0.3274
14432SOL    HW145290   3.993   2.731   0.176  0.0375  1.6766  1.2002
14432SOL    HW245291   3.954   2.819   0.059  0.6791 -0.1369 -0.4091
14433SOL     OW45292   3.072   1.692   5.314 -0.2422  0.3574 -0.6831
14433SOL    HW145293   3.135   1.732   5.373  0.2188 -0.6517 -0.4603
14433SOL    HW245294   3.086   1.736   5.230  0.4976  0.4097 -0.5392
14434SOL     OW45295   7.451   7.345   4.929 -0.0248  0.1903  0.0014
14434SOL    HW145296   7.439   7.440   4.920 -0.7669 -0.0030 -1.3038
14434SOL    HW245297   7.423   7.326   5.019  2.1839  1.4744  1.0677
14435SOL     OW45298   0.274   7.192   0.803 -0.0882 -0.1333 -0.4587
14435SOL    HW145299   0.290   7.164   0.893 -0.4241  1.3595  0.0922
14435SOL    HW245300   0.361   7.197   0.764  0.2108  0.7909  0.2925
14436SOL     OW45301   2.729   1.022   6.907  0.6521 -0.2076 -0.0254
14436SOL    HW145302   2.675   1.097   6.882  0.7726 -0.5846 -1.4785
14436SOL    HW245303   2.669   0.948   6.912  0.5895 -0.0972  1.0840
14437SOL     OW45304   0.243   6.143   8.788  0.1314 -0.2007  0.3861
14437SOL    HW145305   0.186   6.211   8.825 -0.5602 -0.3778 -0.3194
14437SOL    HW245306   0.249   6.077   8.856 -0.6002 -0.2252  0.4386
14438SOL     OW45307   4.077   4.827   2.136 -0.1135  0.8714  0.4347
14438SOL    HW145308   3.993   4.809   2.094 -1.4221  0.5405  2.9956
14438SOL    HW245309   4.083   4.761   2.205  1.9575  1.3273  0.7420
14439SOL     OW45310   3.284   0.916   4.741  0.4846 -0.4653 -0.5135
14439SOL    HW145311   3.230   0.974   4.794 -0.4272 -0.7201 -1.1216
14439SOL    HW245312   3.273   0.949   4.651 -0.3721 -1.7602 -0.9331
14440SOL     OW45313   3.109   8.725   1.061 -0.0390 -0.3475 -0.0157
14440SOL    HW145314   3.125   8.748   1.152  0.4607  0.8796 -0.3777
14440SOL    HW245315   3.189   8.681   1.033 -0.5022 -1.4311  0.3425
14441SOL     OW45316   0.075   7.469   4.131  0.0239 -0.7241  0.2610
14441SOL    HW145317   0.157   7.462   4.083 -1.4063 -0.5179 -2.4268
14441SOL    HW245318   0.055   7.380   4.158 -0.3671 -1.3572 -1.9149
14442SOL     OW45319   1.895   2.018   2.042 -0.2457 -0.0564 -0.4898
14442SOL    HW145320   1.987   2.000   2.019 -0.5349 -0.9239 -1.0106
14442SOL    HW245321   1.900   2.056   2.129  0.7467  1.5530 -1.1847
14443SOL     OW45322   7.663   7.499   7.906 -0.6625 -0.1500  0.2210
14443SOL    HW145323   7.724   7.474   7.837  0.5524 -0.0184  1.1977
14443SOL    HW245324   7.701   7.461   7.986 -0.3854  2.1580  1.2918
14444SOL     OW45325   1.411   4.264   7.030  0.1051  0.5545  0.4439
14444SOL    HW145326   1.499   4.299   7.044  0.1051  0.6491  0.2102
14444SOL    HW245327   1.377   4.313   6.955  0.3300 -0.3440 -0.2722
14445SOL     OW45328   2.311   7.197   6.799 -0.1294 -0.3487 -0.1797
14445SOL    HW145329   2.232   7.153   6.830 -0.5912  0.0881 -0.7132
14445SOL    HW245330   2.363   7.127   6.759 -1.0048 -0.3791 -1.3182
14446SOL     OW45331   0.598   1.527   7.759  0.2095 -0.1039 -0.4603
14446SOL    HW145332   0.558   1.587   7.696 -2.0907  0.9644  1.8485
14446SOL    HW245333   0.688   1.559   7.769  0.3063  0.3313 -2.3413
14447SOL     OW45334   1.971   2.909   7.003  0.2384  0.2948  0.1892
14447SOL    HW145335   1.909   2.878   6.937 -1.6159  1.7739  1.1140
14447SOL    HW245336   1.992   2.832   7.055 -1.8227 -0.0673  0.5724
14448SOL     OW45337   0.336   0.685   2.020  0.5022  0.0269  0.3583
14448SOL    HW145338   0.316   0.595   2.047  1.3145 -0.5542 -0.8796
14448SOL    HW245339   0.428   0.696   2.042  0.4461  0.4934  0.3514
14449SOL     OW45340   5.209   1.261   6.968 -0.0224  0.2814 -0.6380
14449SOL    HW145341   5.259   1.192   7.010 -0.6527 -0.0265 -0.3721
14449SOL    HW245342   5.249   1.271   6.881 -0.5570 -1.1327 -1.0669
14450SOL     OW45343   7.595   2.216   1.776  0.5120  0.4817 -0.0624
14450SOL    HW145344   7.552   2.296   1.806  0.1542 -0.1329  1.1541
14450SOL    HW245345   7.657   2.195   1.847 -1.5041 -1.9150  1.1335
14451SOL     OW45346   6.795   2.919   6.658 -0.0746  0.3560 -0.2770
14451SOL    HW145347   6.843   2.946   6.737  0.8722  1.3137 -1.1494
14451SOL    HW245348   6.778   2.826   6.671 -1.1208  0.7563  1.6506
14452SOL     OW45349   4.578   3.291   7.437  0.4050  0.0011  0.0757
14452SOL    HW145350   4.547   3.202   7.421  1.8836 -0.0535 -3.5482
14452SOL    HW245351   4.673   3.283   7.437  0.5596  1.5249  0.4130
14453SOL     OW45352   7.424   6.540   5.447  0.2850  0.1213 -0.1190
14453SOL    HW145353   7.417   6.524   5.352  0.7357  0.1205 -0.1517
14453SOL    HW245354   7.414   6.635   5.455 -0.2075  0.0717 -0.1245
14454SOL     OW45355   1.916   0.297   8.249  0.0938  0.2414 -0.0095
14454SOL    HW145356   1.983   0.314   8.316  0.1067 -0.7751  0.2562
14454SOL    HW245357   1.834   0.321   8.291  0.0869 -0.5267  0.4433
14455SOL     OW45358   2.906   3.308   7.878 -0.3199 -0.4634 -0.1261
14455SOL    HW145359   2.825   3.296   7.829  0.0708  1.4200 -1.3439
14455SOL    HW245360   2.957   3.230   7.859 -1.2310 -0.9661 -0.5869
14456SOL     OW45361   7.435   8.181   8.820  0.2897 -0.0134 -0.0179
14456SOL    HW145362   7.370   8.234   8.865 -1.2780  0.7707 -2.9296
14456SOL    HW245363   7.471   8.124   8.888 -1.9130  0.9865  2.1384
14457SOL     OW45364   5.624   5.368   2.438  0.7026  0.5378 -0.1179
14457SOL    HW145365   5.651   5.310   2.367 -0.9222 -1.7130  0.9909
14457SOL    HW245366   5.698   5.370   2.498  0.8996 -0.1479 -0.3313
14458SOL     OW45367   5.719   7.037   1.120 -0.9648  0.3087  0.1700
14458SOL    HW145368   5.681   6.963   1.167  0.2005 -1.2215 -1.2199
14458SOL    HW245369   5.644   7.090   1.094 -2.0091 -1.5211 -0.6767
14459SOL     OW45370   2.711   1.554   0.792 -0.4274  0.1507  0.0830
14459SOL    HW145371   2.639   1.578   0.851 -0.3182 -0.8512  0.6653
14459SOL    HW245372   2.678   1.478   0.745 -0.2544  0.5377 -0.6687
14460SOL     OW45373   8.829   3.843   8.181  0.0223 -0.1501 -0.1164
14460SOL    HW145374   8.739   3.840   8.147 -0.3019 -1.1545  0.7666
14460SOL    HW245375   8.828   3.915   8.243  0.1228  0.5135 -0.8663
14461SOL     OW45376   5.834   5.867   8.062 -0.0528 -0.2526  0.1540
14461SOL    HW145377   5.896   5.796   8.080 -0.2704 -0.4714  0.0461
14461SOL    HW245378   5.771   5.863   8.135 -1.6239 -1.8906 -1.1890
14462SOL     OW45379   7.617   0.356   7.456 -0.3123  0.3724  0.1297
14462SOL    HW145380   7.670   0.341   7.534 -0.0568  1.3215  0.1550
14462SOL    HW245381   7.654   0.435   7.417 -0.8926  0.3141 -0.5624
14463SOL     OW45382   6.308   4.483   2.340  0.1031 -0.2433  0.0813
14463SOL    HW145383   6.388   4.435   2.359  0.5084 -0.0451 -1.0329
14463SOL    HW245384   6.309   4.557   2.400  1.1295  0.1504 -0.4115
14464SOL     OW45385   2.634   7.377   0.376  0.0350 -0.0394 -0.2163
14464SOL    HW145386   2.709   7.318   0.371  0.6049  0.6677 -0.2446
14464SOL    HW245387   2.670   7.463   0.350 -0.0781  0.9393  2.5721
14465SOL     OW45388   8.257   8.343   0.086 -0.6288  0.1035 -0.1384
14465SOL    HW145389   8.208   8.320   0.165 -1.6380 -2.8724 -1.4703
14465SOL    HW245390   8.346   8.360   0.117 -0.3057 -3.5890  1.5079
14466SOL     OW45391   6.910   2.932   4.465 -0.0234 -0.0673 -0.0698
14466SOL    HW145392   6.891   2.924   4.558  0.6586 -0.1616  0.0658
14466SOL    HW245393   6.919   3.026   4.451  1.1268 -0.1242  0.2227
14467SOL     OW45394   3.637   8.866   4.083 -0.2705 -0.0560 -0.1357
14467SOL    HW145395   3.685   8.949   4.087  0.9779 -0.7644  0.1931
14467SOL    HW245396   3.698   8.801   4.118 -1.5494 -0.9832  0.4687
14468SOL     OW45397   6.483   8.725   6.985  0.4110  0.5930  0.3362
14468SOL    HW145398   6.486   8.679   7.069  0.8005  1.2430  0.6799
14468SOL    HW245399   6.513   8.813   7.005  0.3464  0.7968 -0.4599
14469SOL     OW45400   7.368   5.978   2.759  0.6681 -0.1788 -0.3607
14469SOL    HW145401   7.368   6.030   2.679  1.0966  1.1324  0.4642
14469SOL    HW245402   7.446   5.923   2.752  0.1960 -0.7578 -1.2506
14470SOL     OW45403   2.093   8.080   0.954 -0.0670  0.1818 -0.0844
14470SOL    HW145404   2.079   8.169   0.922  0.7756 -0.3316 -2.0816
14470SOL    HW245405   2.017   8.031   0.923  0.5621 -0.2397 -1.0201
14471SOL     OW45406   0.038   7.065   2.542  0.1947  0.5525  0.4298
14471SOL    HW145407   0.055   7.138   2.601  2.3900  0.4069  0.0605
14471SOL    HW245408   0.089   6.992   2.579 -0.2928 -0.2041 -0.3502
14472SOL     OW45409   5.345   1.561   2.304  0.3110 -0.1096  0.0547
14472SOL    HW145410   5.277   1.495   2.314  0.6270 -0.6354 -1.0463
14472SOL    HW245411   5.315   1.617   2.232  1.1089 -0.4725 -0.5864
14473SOL     OW45412   7.347   1.459   3.135 -0.3559 -0.0237 -0.1285
14473SOL    HW145413   7.328   1.368   3.115  1.6488 -0.4801 -0.1442
14473SOL    HW245414   7.280   1.509   3.088 -3.6353 -1.5131  2.5246
14474SOL     OW45415   0.581   6.140   3.178  0.3020  0.3894  0.1584
14474SOL    HW145416   0.498   6.172   3.143  1.0547  1.1272 -1.0059
14474SOL    HW245417   0.597   6.059   3.131  0.4422  0.4501  0.1038
14475SOL     OW45418   3.230   1.300   5.517  0.1266  0.4316 -0.5285
14475SOL    HW145419   3.243   1.270   5.427 -1.0672  1.8835 -1.2399
14475SOL    HW245420   3.165   1.240   5.553  0.3786  0.0323 -0.7368
14476SOL     OW45421   7.180   0.511   3.518 -0.1251  0.1822 -0.0508
14476SOL    HW145422   7.229   0.573   3.464 -1.0232 -1.3695 -2.8414
14476SOL    HW245423   7.244   0.444   3.541 -0.5224 -1.2380 -2.7154
14477SOL     OW45424   6.408   0.714   2.033  0.2359  0.5485  0.0101
14477SOL    HW145425   6.437   0.787   2.088 -0.8919  1.0522 -0.0315
14477SOL    HW245426   6.411   0.638   2.090  0.0887  0.8827  0.4737
14478SOL     OW45427   3.646   7.786   0.228 -0.2756 -0.0091 -0.4013
14478SOL    HW145428   3.713   7.719   0.217  0.1951  0.3999 -0.0862
14478SOL    HW245429   3.695   7.868   0.240 -0.8201  0.2569  0.0822
14479SOL     OW45430   6.125   5.510   1.685  0.2493 -0.4029 -1.0620
14479SOL    HW145431   6.032   5.534   1.677  1.0051  3.3814 -0.2910
14479SOL    HW245432   6.134   5.483   1.776  0.2879  1.8683 -0.3148
14480SOL     OW45433   2.733   8.644   5.901 -0.6321  0.1169  0.6292
14480SOL    HW145434   2.752   8.567   5.954  2.0765  0.5014  0.3917
14480SOL    HW245435   2.717   8.609   5.813  0.1721 -0.2375  0.6102
14481SOL     OW45436   4.546   1.292   6.719  0.2431 -0.0892  0.2109
14481SOL    HW145437   4.508   1.292   6.632 -0.8175  0.5132  0.6491
14481SOL    HW245438   4.552   1.385   6.743  1.1346 -0.2134  0.5332
14482SOL     OW45439   1.680   0.971   1.625 -0.4816  0.3462  0.1293
14482SOL    HW145440   1.599   0.954   1.577 -1.1945  0.4416  1.2492
14482SOL    HW245441   1.651   1.001   1.711  0.7475  0.2620  0.5996
14483SOL     OW45442   6.477   6.838   5.384  0.1424  0.3951 -0.2734
14483SOL    HW145443   6.384   6.824   5.366  0.4715  0.2550 -2.0632
14483SOL    HW245444   6.482   6.844   5.480 -1.4571 -1.3772 -0.0082
14484SOL     OW45445   4.484   2.964   5.109 -0.2595  0.2265 -0.1539
14484SOL    HW145446   4.461   2.970   5.017 -0.1168 -1.6199 -0.3467
14484SOL    HW245447   4.405   2.932   5.152 -0.1925  0.6680  0.3152
14485SOL     OW45448   5.434   8.873   8.201  0.3477 -0.1561 -0.6092
14485SOL    HW145449   5.403   8.929   8.130 -0.8005 -0.7578 -0.6102
14485SOL    HW245450   5.374   8.892   8.274  0.5961 -0.6221 -0.2766
14486SOL     OW45451   4.032   5.478   4.794  0.2010  0.5777  0.4133
14486SOL    HW145452   4.039   5.463   4.888 -1.6011 -1.3401  0.2993
14486SOL    HW245453   3.958   5.538   4.784 -0.8589 -0.7161  0.1682
14487SOL     OW45454   4.293   4.869   8.785  0.2627 -0.2145 -0.0468
14487SOL    HW145455   4.380   4.848   8.750 -0.2041 -1.4340 -0.5049
14487SOL    HW245456   4.241   4.790   8.771 -0.2713 -0.3881  2.4338
14488SOL     OW45457   3.979   5.175   8.316  0.1259  0.1588  0.0149
14488SOL    HW145458   3.929   5.093   8.317  0.8959 -0.3542 -1.3701
14488SOL    HW245459   3.916   5.241   8.290 -0.8899  0.3320  2.6212
14489SOL     OW45460   8.845   0.342   8.119  0.5578  0.3884  0.4779
14489SOL    HW145461   8.867   0.339   8.026  3.0172  0.1569  0.9731
14489SOL    HW245462   8.915   0.291   8.161 -0.6499  0.2437  2.4205
14490SOL     OW45463   0.454   1.820   0.035 -0.0170  0.0560 -0.0198
14490SOL    HW145464   0.488   1.891  -0.020  0.9358 -0.4851 -0.1357
14490SOL    HW245465   0.390   1.776  -0.020 -1.1869  1.2743  0.3084
14491SOL     OW45466   5.311   5.673   5.248  0.3090  0.1871  0.1549
14491SOL    HW145467   5.329   5.684   5.341 -0.2140  1.1855  0.1504
14491SOL    HW245468   5.379   5.613   5.217  0.0533 -0.7461  1.3166
14492SOL     OW45469   3.473   3.992   3.499  0.4456 -1.0500  0.4680
14492SOL    HW145470   3.553   4.011   3.547  1.1065  0.6304 -1.1841
14492SOL    HW245471   3.503   3.957   3.415 -0.5014 -0.2015 -0.2569
14493SOL     OW45472   5.919   5.546   4.480  0.1916 -0.4490  0.1137
14493SOL    HW145473   5.943   5.493   4.556 -1.1488 -1.4391 -0.1085
14493SOL    HW245474   5.974   5.624   4.486 -0.8604  0.1914  2.9047
14494SOL     OW45475   8.551   4.001   4.491  0.2445 -0.0173 -0.0193
14494SOL    HW145476   8.499   3.997   4.571 -0.0771  0.7239 -0.1898
14494SOL    HW245477   8.626   4.056   4.513 -0.8352  1.8250 -0.7688
14495SOL     OW45478   5.778   4.405   5.087  0.4194 -0.0233  0.3739
14495SOL    HW145479   5.712   4.426   5.153  0.2303  2.0189 -0.4211
14495SOL    HW245480   5.753   4.318   5.055 -0.9973  0.0758  1.1442
14496SOL     OW45481   1.527   4.297   7.427  0.3464  0.2427  0.1630
14496SOL    HW145482   1.597   4.233   7.420  0.3062  0.3811 -2.8640
14496SOL    HW245483   1.565   4.379   7.395 -0.6007  0.8459  0.5209
14497SOL     OW45484   5.367   4.016   4.731  0.2468 -0.0993  0.0532
14497SOL    HW145485   5.358   4.107   4.703  0.1462 -0.8927 -2.8207
14497SOL    HW245486   5.461   3.999   4.730  0.1582 -0.7805 -2.4043
14498SOL     OW45487   6.123   6.777   4.513 -0.0921 -0.1999 -0.4841
14498SOL    HW145488   6.164   6.806   4.595  0.6680 -1.5008 -0.3809
14498SOL    HW245489   6.129   6.853   4.455  0.9000  0.1999  0.1137
14499SOL     OW45490   3.099   7.658   0.087  0.1064  0.5262  1.1303
14499SOL    HW145491   3.107   7.568   0.119 -0.5506  0.4139  0.9790
14499SOL    HW245492   3.178   7.702   0.120  0.8327 -0.2994  0.5405
14500SOL     OW45493   4.095   7.997   3.915  0.1625  0.6355  0.8301
14500SOL    HW145494   4.140   7.923   3.875 -0.7795  0.4619  0.0517
14500SOL    HW245495   4.140   8.011   3.998  1.6156  0.4569  0.0973
14501SOL     OW45496   4.672   1.274   8.326  0.5944  0.3129  0.2498
14501SOL    HW145497   4.606   1.221   8.282  0.3044 -1.9156  3.0478
14501SOL    HW245498   4.711   1.327   8.257 -1.6864 -0.8613 -2.1043
14502SOL     OW45499   7.714   1.655   4.773 -0.1245  0.3099 -0.4895
14502SOL    HW145500   7.774   1.698   4.834 -1.1013  0.0008  0.7213
14502SOL    HW245501   7.691   1.573   4.815 -3.2673  1.4438  0.2783
14503SOL     OW45502   8.561   0.513   4.731 -0.1058 -0.5544  0.5516
14503SOL    HW145503   8.584   0.480   4.645  1.7294 -0.3878  0.9404
14503SOL    HW245504   8.466   0.524   4.728 -0.0284 -0.0704 -1.6044
14504SOL     OW45505   7.235   6.343   6.917  0.0812  0.3161  0.5570
14504SOL    HW145506   7.197   6.417   6.964 -2.4561  0.0838 -0.9689
14504SOL    HW245507   7.233   6.271   6.980 -0.3810  0.7511  1.0434
14505SOL     OW45508   3.242   4.768   3.970 -0.6945 -0.3818  0.5465
14505SOL    HW145509   3.277   4.833   3.910 -0.8769 -0.7261  0.0626
14505SOL    HW245510   3.212   4.818   4.046  0.4825 -0.0369  0.8093
14506SOL     OW45511   5.904   1.721   2.403 -0.1751 -0.5052  0.5914
14506SOL    HW145512   5.918   1.808   2.441 -0.8198 -0.1855  0.1026
14506SOL    HW245513   5.930   1.730   2.311 -1.3228 -0.5175  0.2537
14507SOL     OW45514   2.999   1.720   0.423 -0.5653  0.0516  0.2236
14507SOL    HW145515   2.967   1.713   0.513  1.3335  0.1174  0.9456
14507SOL    HW245516   3.003   1.630   0.391 -3.4216  0.1319 -0.6868
14508SOL     OW45517   5.931   0.220   6.854 -0.1290  0.2574 -0.4669
14508SOL    HW145518   6.019   0.182   6.862  0.4440  1.7819  1.3956
14508SOL    HW245519   5.905   0.201   6.764  2.7727  1.0970 -1.6120
14509SOL     OW45520   5.118   7.427   8.877 -0.0991  0.0065 -0.2216
14509SOL    HW145521   5.114   7.336   8.904  1.3129  0.3936  1.4699
14509SOL    HW245522   5.048   7.436   8.812 -0.4166 -2.1963 -0.2631
14510SOL     OW45523   0.118   7.812   4.008  0.4760 -0.8313 -0.1846
14510SOL    HW145524   0.170   7.808   4.089 -0.2454 -1.6032  0.2580
14510SOL    HW245525   0.123   7.904   3.981 -0.4759 -0.2030  1.5669
14511SOL     OW45526   7.348   7.189   4.425  0.1556 -0.4748  0.4237
14511SOL    HW145527   7.347   7.220   4.516 -3.4089 -0.5183  0.5195
14511SOL    HW245528   7.382   7.263   4.375  0.4699  0.1996  1.5802
14512SOL     OW45529   6.075   8.096   3.375 -0.2259  0.1039 -0.1743
14512SOL    HW145530   6.016   8.094   3.450 -1.7028  0.4410 -1.2844
14512SOL    HW245531   6.098   8.004   3.360  0.2507  0.0491  0.7755
14513SOL     OW45532   8.811   3.923   0.189  0.1924 -0.4672  0.8033
14513SOL    HW145533   8.895   3.880   0.169  0.6086  0.9921 -0.8036
14513SOL    HW245534   8.836   4.007   0.227 -0.4702  0.5193 -0.8468
14514SOL     OW45535   1.879   3.822   7.495  0.4592 -0.2749  0.0224
14514SOL    HW145536   1.931   3.834   7.416  0.3559  0.4297  0.0594
14514SOL    HW245537   1.792   3.853   7.472 -0.0091 -1.6005 -0.0879
14515SOL     OW45538   2.164   3.549   4.414  0.6077 -0.3277  0.2579
14515SOL    HW145539   2.095   3.542   4.480 -0.0083  1.1367 -0.1950
14515SOL    HW245540   2.245   3.528   4.462  0.1291  0.3157  1.3823
14516SOL     OW45541   8.662   7.040   3.898  0.1482 -0.1095 -0.0862
14516SOL    HW145542   8.646   7.125   3.857  0.1052  0.6215  1.3868
14516SOL    HW245543   8.756   7.038   3.913  0.3517 -0.9395 -1.3903
14517SOL     OW45544   5.058   4.523   4.879 -0.2711  0.0343  0.6784
14517SOL    HW145545   5.017   4.465   4.814  0.2066 -0.6497  0.9824
14517SOL    HW245546   4.996   4.524   4.952 -1.6606  2.1560 -0.4018
14518SOL     OW45547   2.089   1.234   5.909 -0.3862 -0.1370 -0.3511
14518SOL    HW145548   2.128   1.157   5.949 -0.5587  0.0091  0.1033
14518SOL    HW245549   2.134   1.243   5.825  1.4675  0.7595  0.6840
14519SOL     OW45550   3.384   3.915   1.487 -0.3406 -0.3210 -0.1050
14519SOL    HW145551   3.359   3.957   1.405  1.1899 -2.0408 -1.5464
14519SOL    HW245552   3.314   3.852   1.505 -0.4338 -0.2893 -0.3596
14520SOL     OW45553   5.169   5.919   3.499  0.7332 -0.3251 -0.1717
14520SOL    HW145554   5.150   5.989   3.437  1.7554 -0.0061 -0.1357
14520SOL    HW245555   5.261   5.931   3.522  0.4749 -0.6695  1.1174
14521SOL     OW45556   4.002   7.807   3.006  0.1143  0.2444  0.3448
14521SOL    HW145557   3.907   7.811   2.994  0.0582  1.5505  1.0715
14521SOL    HW245558   4.014   7.780   3.097  0.4547 -0.2631  0.1567
14522SOL     OW45559   7.543   5.804   4.873  0.1681  0.3808 -0.4371
14522SOL    HW145560   7.605   5.848   4.816 -0.0072  0.2661 -0.7161
14522SOL    HW245561   7.462   5.797   4.822  0.2855 -0.5555 -0.5201
14523SOL     OW45562   3.930   8.251   2.901  0.0698 -0.4706  0.5142
14523SOL    HW145563   3.848   8.300   2.892  0.5378  0.2641  0.1595
14523SOL    HW245564   3.956   8.266   2.992 -0.0726 -0.5124  0.5620
14524SOL     OW45565   4.715   4.222   1.467 -0.0624 -0.1108  0.1611
14524SOL    HW145566   4.722   4.128   1.484  0.9291 -0.1357 -0.2944
14524SOL    HW245567   4.738   4.231   1.374  0.9723  0.6943  0.4773
14525SOL     OW45568   6.190   4.430   7.207 -0.0671 -0.3665 -0.0582
14525SOL    HW145569   6.138   4.477   7.143 -2.8734 -1.9326  0.9078
14525SOL    HW245570   6.281   4.455   7.188 -0.7679 -0.3895 -4.2986
14526SOL     OW45571   3.426   5.262   5.943  0.0105  0.5585 -0.4509
14526SOL    HW145572   3.428   5.353   5.971  0.4492  1.0022 -1.8617
14526SOL    HW245573   3.334   5.244   5.925  0.0715  1.1492 -1.4337
14527SOL     OW45574   2.576   5.796   7.479  0.1728 -0.0883  0.0557
14527SOL    HW145575   2.507   5.731   7.494  1.0289 -1.2048 -0.7391
14527SOL    HW245576   2.637   5.753   7.420  0.8176  1.4160 -0.4163
14528SOL     OW45577   7.416   6.735   0.683 -0.0884  0.4343 -0.3945
14528SOL    HW145578   7.347   6.782   0.730 -0.4809  0.9257 -1.4205
14528SOL    HW245579   7.370   6.667   0.634  0.2340  0.2953 -0.5077
14529SOL     OW45580   8.589   2.545   5.319 -1.0517 -0.4040  0.4425
14529SOL    HW145581   8.528   2.602   5.272  0.1045  0.3181 -0.2216
14529SOL    HW245582   8.543   2.461   5.326 -1.8229 -0.1001 -0.6918
14530SOL     OW45583   6.164   0.410   6.483 -0.0794  0.2691  0.1101
14530SOL    HW145584   6.256   0.382   6.481 -0.7928 -2.4180  0.4018
14530SOL    HW245585   6.161   0.488   6.428  2.7824  1.9707  2.0718
14531SOL     OW45586   7.777   3.707   2.934  0.2433  0.0715 -0.4270
14531SOL    HW145587   7.833   3.782   2.955 -0.0439  0.1265  0.1552
14531SOL    HW245588   7.829   3.631   2.957  0.1359  0.1188 -0.0277
14532SOL     OW45589   8.604   5.803   1.978 -0.1688 -0.2909 -0.5047
14532SOL    HW145590   8.643   5.863   1.915  1.0003  0.6846  1.0528
14532SOL    HW245591   8.526   5.847   2.009  0.4387  0.2575  0.2970
14533SOL     OW45592   5.271   1.864   5.284 -0.7016 -0.1072 -0.0965
14533SOL    HW145593   5.275   1.769   5.283 -0.5892 -0.1007 -0.9798
14533SOL    HW245594   5.193   1.886   5.234 -0.9568  0.2568  0.4559
14534SOL     OW45595   1.275   4.427   1.905 -0.6242 -0.4612  0.3620
14534SOL    HW145596   1.256   4.400   1.995 -0.2117 -0.1849  0.5396
14534SOL    HW245597   1.319   4.512   1.915 -1.6320  0.1322 -0.1700
14535SOL     OW45598   2.321   2.870   5.832  0.3703 -0.6679 -0.3765
14535SOL    HW145599   2.410   2.869   5.797  0.1911  1.6500 -1.0432
14535SOL    HW245600   2.267   2.839   5.760  0.4508 -0.1569 -0.6615
14536SOL     OW45601   1.790   1.756   5.275  0.2438  0.0548 -0.2997
14536SOL    HW145602   1.867   1.784   5.325 -0.5694 -1.1372  1.7488
14536SOL    HW245603   1.826   1.707   5.202  1.4620  0.1673  0.1946
14537SOL     OW45604   3.274   5.865   6.202 -0.4741 -0.4221 -0.0863
14537SOL    HW145605   3.221   5.851   6.124 -0.9499 -0.3379  0.2223
14537SOL    HW245606   3.248   5.952   6.234  0.1772 -0.1791 -0.1914
14538SOL     OW45607   1.532   5.700   0.454  0.1296  0.3318  0.3929
14538SOL    HW145608   1.560   5.634   0.391  0.7423 -0.4520  1.4403
14538SOL    HW245609   1.577   5.780   0.426  0.9673 -0.1759  0.2408
14539SOL     OW45610   5.653   3.053   3.883  0.2899 -0.3119 -0.6237
14539SOL    HW145611   5.698   2.997   3.821  4.2179  2.8431 -1.0004
14539SOL    HW245612   5.694   3.034   3.967 -0.6806 -0.2846 -0.1327
14540SOL     OW45613   3.729   8.466   6.721 -0.0851  0.4161 -0.3247
14540SOL    HW145614   3.674   8.453   6.798  0.5860  0.3185  0.1463
14540SOL    HW245615   3.808   8.417   6.740 -0.2756 -0.3663 -1.4776
14541SOL     OW45616   2.199   6.510   8.013  0.2867 -0.0326  0.4334
14541SOL    HW145617   2.224   6.553   8.095 -0.3290 -0.5726  0.9190
14541SOL    HW245618   2.159   6.580   7.961 -4.4481 -0.5451  2.7509
14542SOL     OW45619   5.796   4.907   1.296 -0.1688 -0.5783  0.2148
14542SOL    HW145620   5.806   5.000   1.274 -0.8980  0.1463  2.6579
14542SOL    HW245621   5.752   4.869   1.219 -0.7229  1.2879 -0.4513
14543SOL     OW45622   3.271   1.160   4.498 -0.6759 -0.5550 -0.3690
14543SOL    HW145623   3.278   1.195   4.409 -0.0413  1.3391  0.3930
14543SOL    HW245624   3.254   1.066   4.485  1.3002 -0.7019 -2.4845
14544SOL     OW45625   6.119   3.677   1.824  0.1411 -0.7007 -0.2216
14544SOL    HW145626   6.058   3.604   1.816  2.0047 -2.4083  0.1895
14544SOL    HW245627   6.172   3.672   1.744  0.1782  0.3318 -0.2739
14545SOL     OW45628   0.634   6.730   4.536  0.0026  0.2240  0.4027
14545SOL    HW145629   0.582   6.803   4.571 -0.5762 -0.1593  0.3480
14545SOL    HW245630   0.580   6.693   4.466  0.4210 -0.0791  0.2349
14546SOL     OW45631   7.750   1.327   3.578  0.3282 -0.0542 -0.2407
14546SOL    HW145632   7.798   1.377   3.644  0.8983 -0.5788 -0.2486
14546SOL    HW245633   7.681   1.282   3.627 -0.4104  0.9962 -0.2846
14547SOL     OW45634   3.308   8.798   0.621  0.1598  0.2303  0.1755
14547SOL    HW145635   3.309   8.710   0.658 -0.0855  0.1119 -0.1001
14547SOL    HW245636   3.393   8.835   0.646  1.1885 -0.8281 -1.5242
14548SOL     OW45637   3.903   8.423   8.077 -0.3710  0.8825  0.7059
14548SOL    HW145638   3.865   8.346   8.119  0.4208  0.5004  0.7399
14548SOL    HW245639   3.880   8.496   8.134 -0.1926  0.5109  1.2585
14549SOL     OW45640   8.713   1.955   8.620  0.5012 -0.1580 -0.3157
14549SOL    HW145641   8.687   2.034   8.573 -0.2536 -0.0243  0.3085
14549SOL    HW245642   8.771   1.986   8.689  2.6844 -0.4858 -1.8875
14550SOL     OW45643   6.905   8.300   5.529 -0.3712  0.4242  0.1678
14550SOL    HW145644   6.823   8.299   5.481  0.8048 -0.6020 -1.9246
14550SOL    HW245645   6.949   8.380   5.501 -0.4767  0.8057  1.0363
14551SOL     OW45646   7.356   5.689   7.186 -0.1700  0.2334 -0.0905
14551SOL    HW145647   7.393   5.612   7.228 -1.1166 -0.4328 -0.4299
14551SOL    HW245648   7.305   5.732   7.256 -0.9617 -0.3507 -0.2899
14552SOL     OW45649   3.127   1.361   2.131  0.2735  0.2022  0.0527
14552SOL    HW145650   3.199   1.397   2.183  2.3103 -1.6916 -1.2410
14552SOL    HW245651   3.086   1.297   2.189  1.7597 -1.0282 -0.1727
14553SOL     OW45652   7.670   4.761   6.983 -0.1900  0.1572  0.9442
14553SOL    HW145653   7.685   4.826   6.915 -0.3379 -0.6879  0.0638
14553SOL    HW245654   7.756   4.743   7.020 -0.1757  0.9690  1.3260
14554SOL     OW45655   6.112   3.381   0.903 -0.0835  0.2879 -0.2863
14554SOL    HW145656   6.204   3.352   0.901  0.2399  0.6364  3.2223
14554SOL    HW245657   6.115   3.470   0.938 -1.7303  0.5579 -0.7491
14555SOL     OW45658   1.336   6.028   5.240  0.3242  0.1214 -0.0794
14555SOL    HW145659   1.396   6.068   5.176 -0.6441 -0.3797 -1.3357
14555SOL    HW245660   1.292   6.103   5.281  0.8957  0.4503 -0.0577
14556SOL     OW45661   5.557   3.576   7.507 -0.3437 -0.6412  0.5423
14556SOL    HW145662   5.535   3.560   7.415 -0.3118  1.1215  0.2072
14556SOL    HW245663   5.491   3.639   7.537 -1.1439 -2.1173  2.1282
14557SOL     OW45664   3.313   8.631   1.770 -0.3761 -0.3904 -0.3507
14557SOL    HW145665   3.358   8.715   1.777 -0.5065 -0.3709  0.3221
14557SOL    HW245666   3.289   8.609   1.860  0.0728 -1.3763 -0.4586
14558SOL     OW45667   7.093   8.095   7.219 -0.1526 -0.1947 -0.2651
14558SOL    HW145668   7.121   8.109   7.129  1.2079  1.6357  0.3819
14558SOL    HW245669   7.173   8.070   7.266 -0.6405 -0.1074  0.6368
14559SOL     OW45670   8.189   1.341   4.747 -0.2763 -0.2307 -0.4365
14559SOL    HW145671   8.107   1.322   4.792 -0.0704  2.1461  1.1117
14559SOL    HW245672   8.172   1.422   4.699  1.0238  0.0759 -0.4173
14560SOL     OW45673   4.962   6.388   0.332 -0.5105 -0.3317 -0.1219
14560SOL    HW145674   4.938   6.439   0.409 -0.8893 -0.9574  0.1826
14560SOL    HW245675   4.981   6.301   0.366 -0.1531 -0.4760 -0.6702
14561SOL     OW45676   0.028   4.860   5.146 -0.2807 -0.3269  0.0881
14561SOL    HW145677   0.114   4.900   5.134 -0.3045  0.2151  1.4854
14561SOL    HW245678   0.038   4.808   5.226 -1.2171 -0.3247  0.2107
14562SOL     OW45679   0.480   3.667   4.888 -0.5979  0.6872 -0.1003
14562SOL    HW145680   0.441   3.669   4.800 -2.4189 -0.0984  0.6463
14562SOL    HW245681   0.574   3.667   4.872 -0.8862  0.2833 -2.0574
14563SOL     OW45682   5.034   3.977   1.553 -0.7346 -0.1446  0.6786
14563SOL    HW145683   5.045   4.018   1.467  2.0925  1.5831  1.6950
14563SOL    HW245684   4.940   3.969   1.565 -1.2451  1.1938 -1.8404
14564SOL     OW45685   7.241   6.833   1.597  0.2833  0.0795 -0.6674
14564SOL    HW145686   7.211   6.894   1.664 -1.0930 -0.4276 -0.8102
14564SOL    HW245687   7.240   6.884   1.516  1.2486  0.4755 -0.4574
14565SOL     OW45688   6.016   5.936   6.072 -0.3562  0.5245 -0.0152
14565SOL    HW145689   6.055   6.019   6.047 -2.1037  0.9501 -1.5573
14565SOL    HW245690   5.928   5.938   6.035 -0.2218 -2.3162 -0.7605
14566SOL     OW45691   6.127   1.779   1.726  0.1375  0.1905 -0.1913
14566SOL    HW145692   6.038   1.759   1.696 -0.6702  1.3927  1.1890
14566SOL    HW245693   6.153   1.702   1.776 -0.4078  0.0842 -0.0578
14567SOL     OW45694   6.468   7.671   5.443  0.6489 -0.0845  0.0784
14567SOL    HW145695   6.404   7.607   5.472  0.3667  0.7362  1.3760
14567SOL    HW245696   6.440   7.697   5.356  0.6210 -1.5087 -0.3511
14568SOL     OW45697   7.754   4.491   1.570 -0.0584  0.0414  0.1995
14568SOL    HW145698   7.752   4.413   1.625  1.1493  0.7247  1.2529
14568SOL    HW245699   7.710   4.559   1.622  1.1883  0.7237  0.3978
14569SOL     OW45700   3.826   8.737   1.275  0.4377  0.2115  0.1013
14569SOL    HW145701   3.921   8.735   1.281  0.3716  0.5239  1.5150
14569SOL    HW245702   3.808   8.786   1.194  1.4731  1.0159  0.3418
14570SOL     OW45703   5.739   8.171   0.093 -0.1471 -0.0993 -0.2964
14570SOL    HW145704   5.734   8.244   0.031  0.4035  1.2336  1.1543
14570SOL    HW245705   5.821   8.185   0.140  0.1628 -1.8915 -0.2334
14571SOL     OW45706   8.046   4.990   0.868  0.0574  0.6094  0.0150
14571SOL    HW145707   7.978   4.922   0.870 -1.2617  1.8645  0.1254
14571SOL    HW245708   8.118   4.953   0.918 -1.1451 -0.2021  1.2442
14572SOL     OW45709   0.054   1.134   0.645  0.1457  0.6638 -0.4555
14572SOL    HW145710   0.080   1.086   0.566 -1.2955  2.3672 -2.0790
14572SOL    HW245711   0.004   1.071   0.696  1.4940 -0.6170 -0.6277
14573SOL     OW45712   5.640   6.592   4.117 -0.1897 -0.0408 -0.1394
14573SOL    HW145713   5.643   6.666   4.177  0.5462  0.0207 -0.2376
14573SOL    HW245714   5.587   6.622   4.043 -0.7709  0.0183  0.2958
14574SOL     OW45715   4.506   4.351   4.397  0.5412 -0.5228  0.7373
14574SOL    HW145716   4.536   4.301   4.321  0.5368 -0.5508  0.7539
14574SOL    HW245717   4.559   4.318   4.470  0.4909 -0.5510  0.7611
14575SOL     OW45718   1.911   5.930   2.595  0.2935  0.3790 -0.1315
14575SOL    HW145719   1.893   5.872   2.669 -0.2823  3.1004  1.9846
14575SOL    HW245720   2.005   5.945   2.599  0.8187 -1.8014 -1.9069
14576SOL     OW45721   1.137   0.452   4.259  0.1711  0.1132  0.3080
14576SOL    HW145722   1.089   0.445   4.177 -1.2772  1.3597  0.9982
14576SOL    HW245723   1.223   0.485   4.234 -0.7004  1.8034 -0.6286
14577SOL     OW45724   8.704   2.453   1.497  0.4768 -0.6480  0.2238
14577SOL    HW145725   8.636   2.390   1.523 -0.8778  0.9922  0.8735
14577SOL    HW245726   8.767   2.451   1.569  0.1547 -0.8731  0.5047
14578SOL     OW45727   6.036   8.089   5.063  0.1890  0.5602  0.3388
14578SOL    HW145728   6.114   8.110   5.012 -0.6512  1.4404 -0.6427
14578SOL    HW245729   5.964   8.129   5.014 -1.1378 -1.8455  0.1368
14579SOL     OW45730   8.887   3.876   2.274  0.1895  0.1757  0.4747
14579SOL    HW145731   8.887   3.945   2.341  1.6341 -0.5920  1.3298
14579SOL    HW245732   8.828   3.908   2.206  0.8860  2.3035  0.7981
14580SOL     OW45733   1.262   8.885   8.748  0.1233 -0.2255 -0.1791
14580SOL    HW145734   1.275   8.973   8.712 -0.0311  0.6635  1.7979
14580SOL    HW245735   1.350   8.848   8.755  0.4929  0.8428  1.4003
14581SOL     OW45736   8.281   2.657   8.223  0.1832  0.3749 -0.1749
14581SOL    HW145737   8.241   2.727   8.276  0.4993  0.7025 -0.3652
14581SOL    HW245738   8.325   2.704   8.152  0.8506  0.0147 -0.0059
14582SOL     OW45739   5.592   8.264   4.603  0.3712 -0.4011 -0.0465
14582SOL    HW145740   5.680   8.226   4.595 -0.0827 -1.8124  1.2938
14582SOL    HW245741   5.607   8.349   4.645  1.0314 -1.0601  1.0905
14583SOL     OW45742   5.630   0.707   0.571 -0.5156  0.0359  0.1133
14583SOL    HW145743   5.662   0.679   0.656 -0.4913  0.3445  0.2073
14583SOL    HW245744   5.672   0.647   0.509 -0.6487 -0.2818  0.3269
14584SOL     OW45745   8.183   6.346   7.700 -0.1245 -0.3499 -0.0820
14584SOL    HW145746   8.230   6.329   7.782 -0.0700 -1.0399 -0.2446
14584SOL    HW245747   8.220   6.427   7.667  0.3093 -0.4059  0.2559
14585SOL     OW45748   1.989   6.551   7.638 -0.1503 -0.1490 -0.0607
14585SOL    HW145749   2.057   6.494   7.603 -0.6285 -0.9335  0.2689
14585SOL    HW245750   1.938   6.577   7.561  0.8543  0.9273 -0.3961
14586SOL     OW45751   6.160   4.307   2.173  1.0257  0.2354  0.9063
14586SOL    HW145752   6.143   4.352   2.091  0.0438  0.6852  1.3448
14586SOL    HW245753   6.197   4.374   2.230  1.4830 -0.0188  0.9148
14587SOL     OW45754   1.804   5.837   7.598 -0.2840  0.2764 -0.2707
14587SOL    HW145755   1.840   5.749   7.585  0.0488 -0.0385  2.2311
14587SOL    HW245756   1.855   5.873   7.670 -0.6368  2.4298 -1.0285
14588SOL     OW45757   0.666   2.329   6.346  0.5170 -0.5278  0.0316
14588SOL    HW145758   0.746   2.289   6.380  0.8425 -0.1538 -0.2738
14588SOL    HW245759   0.602   2.258   6.343  0.2503 -0.4219  2.0812
14589SOL     OW45760   5.591   0.093   6.845  0.5939  0.1964  0.1599
14589SOL    HW145761   5.512   0.041   6.828 -1.3839  2.2467  2.2504
14589SOL    HW245762   5.583   0.168   6.786  2.6998 -1.0637 -1.8501
14590SOL     OW45763   5.325   4.853   2.201  0.5402  0.2526  0.1804
14590SOL    HW145764   5.267   4.796   2.252 -0.4298  0.5160 -0.5771
14590SOL    HW245765   5.285   4.856   2.114  1.2585  1.0946 -0.1450
14591SOL     OW45766   0.673   0.079   0.388 -0.3582  0.7010  0.1790
14591SOL    HW145767   0.740   0.107   0.451 -1.5580  0.0577  1.8319
14591SOL    HW245768   0.675   0.145   0.319  0.8802  1.5581  0.9842
14592SOL     OW45769   4.399   0.677   5.404  0.4444  0.4437  0.1704
14592SOL    HW145770   4.441   0.755   5.441  2.5656  0.4988 -2.0803
14592SOL    HW245771   4.435   0.604   5.454  0.3831  0.7264  0.6331
14593SOL     OW45772   2.450   4.194   6.382  0.0662  0.1023  0.4819
14593SOL    HW145773   2.415   4.269   6.334 -0.4362 -0.2555  0.2773
14593SOL    HW245774   2.544   4.209   6.386 -0.0232  0.6976  0.3670
14594SOL     OW45775   1.518   3.384   4.599 -1.1768 -0.0566 -0.5422
14594SOL    HW145776   1.553   3.444   4.665  0.5814 -0.2163 -1.2848
14594SOL    HW245777   1.424   3.402   4.598 -0.7962  2.2851 -0.3309
14595SOL     OW45778   7.671   2.495   4.641  0.1474 -0.2079  0.4006
14595SOL    HW145779   7.753   2.535   4.612  1.0328 -1.6050  0.8582
14595SOL    HW245780   7.689   2.468   4.731 -0.6466 -0.9930  0.3342
14596SOL     OW45781   5.787   6.171   5.042  0.0922 -0.1101  0.3379
14596SOL    HW145782   5.782   6.229   4.966 -2.6556 -0.2498  0.3123
14596SOL    HW245783   5.748   6.222   5.113 -0.2320 -1.0922  0.8764
14597SOL     OW45784   3.599   5.333   3.139  0.4568  0.3683 -0.0273
14597SOL    HW145785   3.635   5.256   3.095  1.4623  1.8304 -1.9102
14597SOL    HW245786   3.645   5.407   3.100 -2.2445  2.1359 -0.1543
14598SOL     OW45787   0.142   2.110   7.894 -0.3794  0.1347 -0.0795
14598SOL    HW145788   0.162   2.131   7.985 -0.2802 -2.5515  0.5969
14598SOL    HW245789   0.064   2.162   7.874 -0.2595  0.9377  1.4488
14599SOL     OW45790   2.832   2.704   0.113  0.2504 -0.2700  0.4639
14599SOL    HW145791   2.883   2.785   0.115 -0.7792  0.3919  1.7579
14599SOL    HW245792   2.809   2.689   0.205 -1.1218 -1.0228  0.0092
14600SOL     OW45793   5.269   8.573   7.561 -0.0344  0.0699  0.5464
14600SOL    HW145794   5.272   8.477   7.560 -0.5292  0.0583 -0.2408
14600SOL    HW245795   5.335   8.598   7.626  1.4545 -0.7413 -0.6000
14601SOL     OW45796   2.905   7.703   5.433 -0.2040  0.8894  0.5812
14601SOL    HW145797   2.883   7.651   5.510 -1.7766  1.1803  0.3645
14601SOL    HW245798   2.883   7.646   5.359  1.7269  0.4371  0.3138
14602SOL     OW45799   0.378   2.502   6.465  0.5564  0.0261  0.1363
14602SOL    HW145800   0.462   2.521   6.425 -0.0574  1.3540 -0.5955
14602SOL    HW245801   0.351   2.584   6.505  0.8765 -1.0978  2.8656
14603SOL     OW45802   3.842   1.025   5.028  0.1978  0.2585  0.1563
14603SOL    HW145803   3.876   1.054   5.113 -1.5695 -0.1894  1.0738
14603SOL    HW245804   3.809   0.936   5.045  0.3282 -0.0576 -1.1555
14604SOL     OW45805   3.875   2.421   6.816 -0.1373  0.0643  0.1336
14604SOL    HW145806   3.922   2.362   6.756  2.7323  1.0031  1.2964
14604SOL    HW245807   3.870   2.504   6.769  0.5896  0.3321  0.5219
14605SOL     OW45808   3.886   7.709   2.102  0.2682  0.0855 -0.1455
14605SOL    HW145809   3.921   7.763   2.172 -2.1332  2.1655 -0.4339
14605SOL    HW245810   3.855   7.771   2.037  0.5842 -1.7533 -2.1791
14606SOL     OW45811   6.106   2.900   8.598 -0.6456  0.4254  0.3116
14606SOL    HW145812   6.109   2.817   8.646  2.3531 -0.5793 -1.3289
14606SOL    HW245813   6.064   2.878   8.515 -0.0249  0.5917 -0.0498
14607SOL     OW45814   4.983   0.661   1.001 -0.5657  0.4285  0.0399
14607SOL    HW145815   4.971   0.579   0.953 -3.8163 -0.2187  1.7024
14607SOL    HW245816   4.905   0.712   0.981  0.9309  2.8016 -0.1871
14608SOL     OW45817   3.028   7.644   6.128 -0.0399 -0.0084  0.1959
14608SOL    HW145818   2.941   7.605   6.130 -0.7955  1.5210 -1.1365
14608SOL    HW245819   3.087   7.569   6.114 -1.2058 -0.9511  0.1431
14609SOL     OW45820   6.860   4.174   7.473 -0.3732 -0.1793  0.3410
14609SOL    HW145821   6.891   4.264   7.460 -0.1735 -0.2225  0.5090
14609SOL    HW245822   6.766   4.178   7.456 -0.2073 -0.1390 -0.6402
14610SOL     OW45823   3.967   0.122   3.629  0.3472  0.0310  0.1551
14610SOL    HW145824   3.975   0.044   3.573  0.1313 -0.4543  0.7800
14610SOL    HW245825   3.893   0.102   3.687 -0.2050  1.0317 -0.1812
14611SOL     OW45826   0.081   4.549   6.484 -0.7864 -0.3944  0.3700
14611SOL    HW145827   0.091   4.635   6.524  0.3633  0.5464 -1.7504
14611SOL    HW245828   0.039   4.566   6.399  0.0286 -1.8132 -0.3643
14612SOL     OW45829   7.795   5.246   6.610  0.8092 -0.2844 -0.0929
14612SOL    HW145830   7.880   5.220   6.573  0.1098 -2.2869 -0.3860
14612SOL    HW245831   7.763   5.168   6.653 -0.9965  0.3922 -0.1433
14613SOL     OW45832   2.183   5.422   8.565  0.1001 -0.4068 -0.7337
14613SOL    HW145833   2.124   5.425   8.640  3.2402 -0.7219  1.9860
14613SOL    HW245834   2.199   5.328   8.551  2.9720 -0.3665  1.3686
14614SOL     OW45835   7.513   5.710   2.153  0.6834 -0.3043  0.6867
14614SOL    HW145836   7.606   5.730   2.164  1.0622 -1.3964 -0.3575
14614SOL    HW245837   7.494   5.729   2.061  0.6815 -3.0374  0.0509
14615SOL     OW45838   7.059   4.275   4.190 -0.7572  0.3325 -0.8155
14615SOL    HW145839   7.057   4.179   4.192  0.9892  0.2490 -1.5704
14615SOL    HW245840   7.102   4.300   4.272 -1.1564  0.4730 -0.6474
14616SOL     OW45841   6.142   6.320   7.367 -0.0661  1.0496  0.8613
14616SOL    HW145842   6.108   6.337   7.279  1.7703  2.0485  0.2897
14616SOL    HW245843   6.181   6.233   7.362  1.1326  1.6034  0.3042
14617SOL     OW45844   8.049   5.912   0.905 -0.9447 -0.2760  0.0735
14617SOL    HW145845   8.083   5.823   0.896 -0.0171  0.2703 -3.6818
14617SOL    HW245846   8.084   5.943   0.989  0.5565 -2.7076  0.4491
14618SOL     OW45847   5.568   1.198   4.156  0.5212  0.0058 -0.8866
14618SOL    HW145848   5.629   1.256   4.201 -0.3472 -0.7344  1.4127
14618SOL    HW245849   5.586   1.111   4.192 -1.6768 -0.2619 -0.2787
14619SOL     OW45850   8.298   2.599   7.682  0.0505  0.5553  0.1739
14619SOL    HW145851   8.348   2.546   7.745  1.8146  1.2133 -0.5967
14619SOL    HW245852   8.212   2.557   7.678  0.5137 -0.6190  1.5925
14620SOL     OW45853   5.686   2.831   0.399 -0.0888 -0.0245  0.3492
14620SOL    HW145854   5.661   2.840   0.307 -0.2595  0.3475  0.4327
14620SOL    HW245855   5.718   2.740   0.406 -0.2929 -0.1268 -0.0223
14621SOL     OW45856   6.588   1.970   7.644 -0.4196 -0.1390  0.1124
14621SOL    HW145857   6.565   1.957   7.552  0.1139 -0.6135  0.0418
14621SOL    HW245858   6.615   1.884   7.675  0.8868  0.3057  0.2873
14622SOL     OW45859   3.210   7.736   1.537  0.8898  0.6698  0.0775
14622SOL    HW145860   3.167   7.821   1.534  1.1651  0.9046  1.9254
14622SOL    HW245861   3.304   7.756   1.538  0.9513  0.3702  0.8844
14623SOL     OW45862   2.707   3.411   2.507  0.5688  0.6505  0.2064
14623SOL    HW145863   2.785   3.358   2.490  0.4606  0.8224 -0.8448
14623SOL    HW245864   2.698   3.467   2.431  0.7916  2.3536  1.3682
14624SOL     OW45865   2.247   7.660   7.485  0.0991  0.1971  0.2815
14624SOL    HW145866   2.213   7.679   7.573  0.8333  1.4609  0.3185
14624SOL    HW245867   2.257   7.746   7.444  2.7257 -0.1134  0.0971
14625SOL     OW45868   3.464   5.068   4.599 -0.5682  0.3087 -0.3103
14625SOL    HW145869   3.458   5.131   4.527  1.1252 -0.1078 -0.8518
14625SOL    HW245870   3.400   5.100   4.663 -0.3089  2.1327 -0.8922
14626SOL     OW45871   5.691   0.143   4.174 -0.2862 -0.0402  0.5591
14626SOL    HW145872   5.629   0.154   4.103  0.3785 -0.7589 -0.1462
14626SOL    HW245873   5.695   0.229   4.216  0.0315  0.6683 -0.8746
14627SOL     OW45874   5.814   7.688   7.492  0.3075  0.3540  0.1892
14627SOL    HW145875   5.871   7.753   7.532 -0.9556  0.6887  1.5019
14627SOL    HW245876   5.809   7.714   7.400  0.3991  1.7030  0.5461
14628SOL     OW45877   1.402   2.413   5.437  0.0858  0.1850 -0.1345
14628SOL    HW145878   1.381   2.380   5.524  0.4942  1.6180  0.5453
14628SOL    HW245879   1.479   2.468   5.450 -0.7728  1.7113 -1.0991
14629SOL     OW45880   8.673   3.814   4.229 -0.4321 -0.5081 -0.3852
14629SOL    HW145881   8.713   3.898   4.206 -1.0668 -0.3429 -0.9332
14629SOL    HW245882   8.742   3.750   4.214 -0.4922 -0.2870 -1.7761
14630SOL     OW45883   1.506   8.573   7.182  0.1083  0.0737 -0.0192
14630SOL    HW145884   1.476   8.560   7.092 -0.4183  2.2174 -0.2053
14630SOL    HW245885   1.466   8.501   7.231 -0.2491 -0.6737 -1.3618
14631SOL     OW45886   7.974   3.658   5.530  0.2657 -0.5149  0.2582
14631SOL    HW145887   7.922   3.601   5.586 -1.6346  1.0044  0.1441
14631SOL    HW245888   7.920   3.669   5.451 -0.1202  2.4620  0.8320
14632SOL     OW45889   0.763   3.658   0.815  0.1581 -0.3554 -0.0983
14632SOL    HW145890   0.714   3.592   0.864 -0.2110 -0.3972 -0.5076
14632SOL    HW245891   0.840   3.676   0.868 -0.7040  0.3142  0.9643
14633SOL     OW45892   6.282   7.289   1.108 -0.1979  0.0399 -0.5517
14633SOL    HW145893   6.240   7.312   1.025 -0.6510  1.9472  0.1731
14633SOL    HW245894   6.374   7.276   1.085 -0.5429 -0.8603 -1.5635
14634SOL     OW45895   6.331   0.307   8.277 -0.3128 -0.3458 -0.0047
14634SOL    HW145896   6.247   0.353   8.273  0.0469  0.2471 -0.8941
14634SOL    HW245897   6.339   0.279   8.369 -1.4572 -0.3751  0.0978
14635SOL     OW45898   0.257   4.327   0.931 -0.5970 -0.4494 -0.0248
14635SOL    HW145899   0.351   4.326   0.947 -0.5011 -0.4083 -0.5711
14635SOL    HW245900   0.248   4.360   0.842 -1.3024  3.3745  1.2600
14636SOL     OW45901   1.190   7.833   4.556 -0.2636 -0.5415  0.4898
14636SOL    HW145902   1.228   7.794   4.634 -1.2698 -1.0205  0.7581
14636SOL    HW245903   1.220   7.778   4.484 -0.7515 -1.1510  0.7420
14637SOL     OW45904   6.475   6.768   6.616 -0.4022  0.5786  0.0578
14637SOL    HW145905   6.541   6.807   6.558  0.3878 -0.8122 -0.0177
14637SOL    HW245906   6.509   6.785   6.704 -0.8931  1.4599  0.0908
14638SOL     OW45907   4.188   6.599   7.814 -0.3322 -0.1613 -0.5204
14638SOL    HW145908   4.102   6.565   7.836 -0.1774 -0.5523 -0.5011
14638SOL    HW245909   4.176   6.643   7.730 -0.7447  0.5967 -0.0777
14639SOL     OW45910   7.722   0.751   3.237 -0.8161 -0.3973 -0.0755
14639SOL    HW145911   7.733   0.843   3.262  1.8053 -0.5163 -0.5172
14639SOL    HW245912   7.680   0.755   3.151 -2.7886  0.2638  0.8728
14640SOL     OW45913   0.996   4.655   3.525  0.6417  0.4102  0.0459
14640SOL    HW145914   0.903   4.657   3.544  0.8769  0.0924  1.3399
14640SOL    HW245915   1.027   4.743   3.545  0.7387  0.3275  0.2572
14641SOL     OW45916   4.864   2.011   5.736 -0.0547  0.1761 -0.0672
14641SOL    HW145917   4.889   1.923   5.709 -2.1285  0.6022 -4.1614
14641SOL    HW245918   4.781   1.999   5.783 -0.8378 -0.0695 -1.4619
14642SOL     OW45919   6.947   2.802   3.024 -0.1046 -0.5138  0.3101
14642SOL    HW145920   7.027   2.845   2.993 -0.4234 -0.7036 -0.8133
14642SOL    HW245921   6.965   2.782   3.116  0.7757  0.2943  0.3340
14643SOL     OW45922   5.160   5.320   8.610  0.5042  0.2148 -0.1986
14643SOL    HW145923   5.214   5.260   8.559 -0.7040 -1.0183 -0.0810
14643SOL    HW245924   5.132   5.387   8.547 -0.2792 -0.8219 -0.9836
14644SOL     OW45925   3.516   8.119   5.000  0.0517 -0.4878  0.0191
14644SOL    HW145926   3.450   8.118   5.069  0.0390  2.4158  0.1620
14644SOL    HW245927   3.507   8.205   4.959  1.6675 -1.2190 -2.0443
14645SOL     OW45928   2.387   0.142   5.830 -0.2616 -0.2211  0.0170
14645SOL    HW145929   2.440   0.172   5.904 -0.2274  1.1524 -0.5286
14645SOL    HW245930   2.432   0.064   5.799  0.3253 -0.2072  0.7944
14646SOL     OW45931   6.965   5.468   3.529  0.2448 -0.3092 -0.2807
14646SOL    HW145932   6.953   5.417   3.609  2.2167 -0.6506 -0.1579
14646SOL    HW245933   6.876   5.492   3.502 -0.7486 -3.4555 -0.1367
14647SOL     OW45934   7.103   1.083   3.166  0.3429  0.1204  0.1072
14647SOL    HW145935   7.034   1.109   3.227  0.7940 -0.9586  1.1023
14647SOL    HW245936   7.062   1.016   3.112  0.8786 -1.2361  1.3473
14648SOL     OW45937   1.646   5.660   0.075  0.1238 -0.0629  0.6991
14648SOL    HW145938   1.563   5.672   0.029  1.1137 -1.2287 -1.5388
14648SOL    HW245939   1.688   5.746   0.070 -0.1065  0.0210  0.0660
14649SOL     OW45940   1.438   0.965   5.097 -0.3526 -0.2566  0.1431
14649SOL    HW145941   1.388   1.026   5.151 -0.8891  1.1493 -1.8091
14649SOL    HW245942   1.375   0.896   5.076 -0.7018  0.1253 -0.1076
14650SOL     OW45943   3.990   6.936   6.182 -0.6489  0.2364  0.3032
14650SOL    HW145944   3.959   6.847   6.197 -1.7084  0.6583  0.7044
14650SOL    HW245945   4.081   6.935   6.213 -0.5969 -0.7402  0.1452
14651SOL     OW45946   7.079   5.992   4.725  0.1644 -0.4975 -0.3869
14651SOL    HW145947   6.985   5.983   4.709 -0.4270 -1.2352  2.8746
14651SOL    HW245948   7.110   5.902   4.739  1.0408 -0.1356  0.1064
14652SOL     OW45949   5.440   2.960   6.302 -0.2145  0.2758  0.1150
14652SOL    HW145950   5.375   2.979   6.370  0.0312 -2.3278  1.1772
14652SOL    HW245951   5.420   3.023   6.232 -3.2935  0.1625  0.7484
14653SOL     OW45952   0.072   2.659   7.569 -0.1060 -0.0642 -0.0730
14653SOL    HW145953   0.113   2.699   7.492  0.3264 -0.3713 -0.0066
14653SOL    HW245954  -0.003   2.611   7.533 -1.4073  1.8060 -0.0132
14654SOL     OW45955   2.086   8.723   3.382 -0.1308 -0.1230 -0.3897
14654SOL    HW145956   2.057   8.641   3.423  0.5172  1.2150  3.0776
14654SOL    HW245957   2.181   8.722   3.391  0.1619 -0.0650 -2.7296
14655SOL     OW45958   0.118   0.981   0.435 -0.0213 -0.4242 -0.2214
14655SOL    HW145959   0.196   0.932   0.408 -0.3993 -0.7042 -0.8144
14655SOL    HW245960   0.061   0.981   0.358 -2.3329 -3.5443  1.2501
14656SOL     OW45961   1.872   4.854   4.918  0.5906 -0.2241 -0.0351
14656SOL    HW145962   1.930   4.865   4.843 -1.2223  0.5495 -1.4264
14656SOL    HW245963   1.842   4.943   4.938  0.4183 -0.5252  1.0913
14657SOL     OW45964   6.351   2.417   1.609  0.9031 -0.1649 -0.2786
14657SOL    HW145965   6.382   2.501   1.642 -0.1574  0.4340 -0.7513
14657SOL    HW245966   6.307   2.376   1.684  2.0840 -0.6663  0.1696
14658SOL     OW45967   0.718   0.453   1.487 -0.0273 -0.0893  0.4361
14658SOL    HW145968   0.681   0.541   1.492  0.8574  0.4467 -1.3512
14658SOL    HW245969   0.813   0.467   1.491  0.1396 -1.2753  3.2258
14659SOL     OW45970   2.408   2.976   2.500  0.1979  0.3147 -0.2056
14659SOL    HW145971   2.400   3.071   2.492  1.7563  0.6435  1.4823
14659SOL    HW245972   2.502   2.960   2.510 -0.1970 -1.1090  2.2078
14660SOL     OW45973   8.214   2.815   5.352  0.3483  0.0576  0.6132
14660SOL    HW145974   8.272   2.837   5.425  0.2248  0.7634  0.5056
14660SOL    HW245975   8.269   2.762   5.294  0.4322 -0.5562  1.2349
14661SOL     OW45976   7.613   2.185   5.493 -0.7097  0.0732 -0.5966
14661SOL    HW145977   7.680   2.254   5.488 -1.7472  1.8471  4.3139
14661SOL    HW245978   7.530   2.231   5.478 -1.2602 -0.6341  0.1816
14662SOL     OW45979   3.411   1.361   0.325 -0.0791  0.3369 -0.0675
14662SOL    HW145980   3.485   1.421   0.318  0.8707 -0.8145 -0.2608
14662SOL    HW245981   3.396   1.331   0.235  0.4178 -0.8060  0.2119
14663SOL     OW45982   8.732   5.866   0.214 -0.1381  0.0206 -0.6363
14663SOL    HW145983   8.769   5.938   0.163  0.2381  1.2506  1.2435
14663SOL    HW245984   8.725   5.901   0.303 -2.5176 -1.3705 -0.1757
14664SOL     OW45985   4.392   6.378   3.645 -0.1578  0.4008  0.0586
14664SOL    HW145986   4.428   6.390   3.733 -0.9543 -0.5018  0.5238
14664SOL    HW245987   4.322   6.315   3.656  0.2494 -0.3472 -1.3580
14665SOL     OW45988   5.942   4.560   1.577  0.1663 -0.7320 -0.6416
14665SOL    HW145989   5.957   4.492   1.643  0.4674 -0.1871 -0.1452
14665SOL    HW245990   6.011   4.625   1.592  0.8272 -1.0435 -2.0899
14666SOL     OW45991   3.090   3.351   0.057 -0.0458 -0.1920 -0.3786
14666SOL    HW145992   3.089   3.433   0.105  1.5673 -0.2398 -0.2282
14666SOL    HW245993   3.149   3.367  -0.017 -0.8260 -0.7823 -1.1505
14667SOL     OW45994   7.806   3.606   8.749  0.1777  0.0417 -0.3761
14667SOL    HW145995   7.819   3.523   8.704  1.3415 -0.5396  0.9676
14667SOL    HW245996   7.773   3.582   8.836  0.8348  0.9427  0.1473
14668SOL     OW45997   5.742   3.143   4.357 -0.3187  0.4447 -0.3089
14668SOL    HW145998   5.668   3.200   4.378 -1.7705 -1.7904  1.1477
14668SOL    HW245999   5.703   3.055   4.351  1.9589 -0.5652 -1.3062
14669SOL     OW46000   3.152   2.077   4.408  0.2778  0.5110  0.0333
14669SOL    HW146001   3.206   2.116   4.339 -1.0977  1.9618 -0.2814
14669SOL    HW246002   3.131   1.989   4.375  0.2447  0.9182 -1.0660
14670SOL     OW46003   2.910   6.420   1.310  0.0221 -0.0968  0.3126
14670SOL    HW146004   2.980   6.451   1.368 -0.7227 -2.0734  2.4418
14670SOL    HW246005   2.840   6.484   1.321  1.0817  1.3932 -1.1256
14671SOL     OW46006   6.216   4.936   5.058 -0.6497 -0.1711  0.3895
14671SOL    HW146007   6.123   4.955   5.071 -0.2705  2.3051  0.0484
14671SOL    HW246008   6.218   4.878   4.982 -1.9610 -1.6790  1.4316
14672SOL     OW46009   7.612   2.979   8.831  0.0603  0.7658 -1.3065
14672SOL    HW146010   7.523   2.999   8.802  0.0749  0.2031 -1.7457
14672SOL    HW246011   7.601   2.925   8.910  0.0196  1.1591 -1.0384
14673SOL     OW46012   7.374   3.486   0.369  0.2775  0.0628 -0.1353
14673SOL    HW146013   7.373   3.390   0.359 -1.3666 -0.0139  0.3731
14673SOL    HW246014   7.305   3.503   0.433 -0.4033  1.6911 -1.2634
14674SOL     OW46015   0.022   4.452   3.037  0.2285 -0.0573  0.2978
14674SOL    HW146016   0.041   4.527   2.980 -1.6094 -0.4317 -0.8591
14674SOL    HW246017  -0.050   4.482   3.093 -0.5913 -0.9631 -0.2396
14675SOL     OW46018   7.598   7.043   0.107 -0.6220  0.4239 -0.0525
14675SOL    HW146019   7.582   7.131   0.073  0.1366  2.0662  3.4053
14675SOL    HW246020   7.674   7.053   0.164  1.1907 -3.1261 -1.5362
14676SOL     OW46021   2.722   2.548   6.671 -0.3860 -0.4023 -0.9511
14676SOL    HW146022   2.677   2.542   6.755 -0.7832  0.5634 -1.0805
14676SOL    HW246023   2.795   2.488   6.678  0.3024  0.5674  0.5339
14677SOL     OW46024   6.118   0.322   8.888  0.0023  0.2097 -0.3451
14677SOL    HW146025   6.038   0.359   8.926 -0.7273 -0.6309 -1.0224
14677SOL    HW246026   6.149   0.259   8.953 -0.3529 -0.0687 -0.4443
14678SOL     OW46027   6.861   8.646   5.936  0.1072 -0.0393 -0.0951
14678SOL    HW146028   6.850   8.569   5.881 -0.6428  0.1140 -0.1740
14678SOL    HW246029   6.772   8.676   5.953  0.3941  1.3090 -0.7737
14679SOL     OW46030   8.495   4.838   8.869 -0.1189 -0.5798  0.0517
14679SOL    HW146031   8.486   4.744   8.857  1.0634 -0.5634 -1.0919
14679SOL    HW246032   8.405   4.872   8.860 -0.5417 -1.5700  0.4207
14680SOL     OW46033   3.586   6.377   0.246 -0.0466  0.0759  0.2449
14680SOL    HW146034   3.561   6.459   0.203 -3.5857 -0.8559  0.2188
14680SOL    HW246035   3.586   6.399   0.339 -0.5749  0.2452  0.2130
14681SOL     OW46036   0.745   2.784   1.572  0.4780  0.3366  0.3035
14681SOL    HW146037   0.715   2.801   1.482 -0.2513  2.0180  0.8189
14681SOL    HW246038   0.684   2.718   1.604 -0.7921  1.4571  0.3060
14682SOL     OW46039   3.005   3.187   0.679  0.7602 -0.1456 -1.0955
14682SOL    HW146040   2.948   3.110   0.673 -0.9697  0.7182  1.9758
14682SOL    HW246041   3.070   3.164   0.744  1.4497  0.3299 -1.5973
14683SOL     OW46042   1.282   2.906   2.793  0.9174  0.2770 -0.3876
14683SOL    HW146043   1.261   2.863   2.876  0.2088  0.4464 -0.4701
14683SOL    HW246044   1.213   2.972   2.782 -0.3348 -1.2290 -2.1939
14684SOL     OW46045   5.526   6.301   0.284 -0.5834 -0.2457 -0.1011
14684SOL    HW146046   5.576   6.382   0.291 -0.7777 -0.2531  1.8034
14684SOL    HW246047   5.437   6.330   0.264 -0.7669  0.0692  1.1095
14685SOL     OW46048   3.674   2.997   0.150 -0.0550 -0.5018  0.3132
14685SOL    HW146049   3.721   3.054   0.088 -1.0162  0.0967  0.1173
14685SOL    HW246050   3.582   3.003   0.124 -0.1065 -2.9228 -0.3332
14686SOL     OW46051   0.057   6.551   7.739  0.7459 -0.0033 -0.4503
14686SOL    HW146052   0.117   6.488   7.699  1.0960 -0.3914  0.6465
14686SOL    HW246053  -0.029   6.511   7.728  0.7711  0.1670 -1.3095
14687SOL     OW46054   1.882   8.886   0.757  0.0220 -0.4636 -0.1465
14687SOL    HW146055   1.789   8.884   0.779 -0.3536  0.7185 -1.4564
14687SOL    HW246056   1.927   8.857   0.837 -1.5292 -3.8072 -0.3288
14688SOL     OW46057   2.762   6.998   3.642 -0.1361  0.5991  0.4340
14688SOL    HW146058   2.794   6.961   3.725  0.6273 -1.9505 -0.8892
14688SOL    HW246059   2.667   6.990   3.648 -0.0183 -1.1284  0.4459
14689SOL     OW46060   1.188   1.574   6.141  0.3466 -0.3462 -0.6650
14689SOL    HW146061   1.246   1.522   6.086 -0.2091 -0.4978 -1.1168
14689SOL    HW246062   1.117   1.514   6.164 -0.8455  0.4744 -2.0366
14690SOL     OW46063   3.139   3.028   2.474  0.1354  0.2058 -0.0584
14690SOL    HW146064   3.097   3.108   2.443 -2.0942  0.2557  2.6530
14690SOL    HW246065   3.068   2.965   2.481  0.9506 -0.5695  2.1620
14691SOL     OW46066   8.746   2.088   0.668 -0.1063  0.1379 -0.0525
14691SOL    HW146067   8.764   2.119   0.757 -0.3144 -2.1025  0.8404
14691SOL    HW246068   8.662   2.127   0.646  0.2912  1.3133  0.4177
14692SOL     OW46069   8.643   3.595   0.722 -0.1581 -0.3820  0.3440
14692SOL    HW146070   8.635   3.529   0.653  1.9180 -0.4413  0.0933
14692SOL    HW246071   8.728   3.577   0.763 -0.1932  1.2370  1.2257
14693SOL     OW46072   6.011   4.696   2.319 -0.2089  0.1052 -0.5439
14693SOL    HW146073   6.038   4.733   2.403 -0.0604  0.2171 -0.6397
14693SOL    HW246074   5.917   4.714   2.315 -0.2841 -0.2218 -0.2413
14694SOL     OW46075   2.272   6.825   4.771 -0.3135  0.1189 -0.2495
14694SOL    HW146076   2.340   6.884   4.805  0.2706 -0.0734 -1.0395
14694SOL    HW246077   2.190   6.862   4.803  0.0242  1.4875 -0.8923
14695SOL     OW46078   4.645   7.415   2.965  0.2253 -0.0160 -0.4597
14695SOL    HW146079   4.715   7.480   2.964 -0.3712  0.6382 -1.3727
14695SOL    HW246080   4.625   7.399   2.873  0.8601 -2.0724 -0.2970
14696SOL     OW46081   1.312   6.059   7.236 -0.0468 -0.2395 -0.4062
14696SOL    HW146082   1.259   5.992   7.193 -0.1502  0.0984 -0.8062
14696SOL    HW246083   1.276   6.142   7.206 -0.9434  0.0273  1.3334
14697SOL     OW46084   3.303   5.515   6.062 -0.1723  0.3593 -0.1152
14697SOL    HW146085   3.276   5.519   6.154  0.0235  2.0174 -0.1003
14697SOL    HW246086   3.237   5.566   6.015 -0.7738 -1.2023 -1.0626
14698SOL     OW46087   2.408   7.531   7.135  0.1668  0.0986  0.2254
14698SOL    HW146088   2.380   7.498   7.049  0.1917  1.2020 -0.2323
14698SOL    HW246089   2.329   7.527   7.189 -0.7680  2.3819 -0.8045
14699SOL     OW46090   7.521   6.617   3.394  0.2519 -0.2893 -0.3371
14699SOL    HW146091   7.549   6.527   3.411  0.8016  0.2114  1.6840
14699SOL    HW246092   7.561   6.668   3.464 -0.8988  1.3806 -0.8377
14700SOL     OW46093   2.168   1.965   1.939 -0.4571 -0.0558  0.5044
14700SOL    HW146094   2.149   1.891   1.996  1.1173 -1.1068 -0.2691
14700SOL    HW246095   2.262   1.979   1.949 -1.0650  3.8305  2.9683
14701SOL     OW46096   0.859   0.337   0.158  0.8697  0.6808 -0.7009
14701SOL    HW146097   0.854   0.378   0.072  0.9669  1.9424 -0.1233
14701SOL    HW246098   0.768   0.320   0.182  0.8845 -1.0662 -1.6565
14702SOL     OW46099   5.560   3.986   3.615 -0.1675  0.2151  0.3981
14702SOL    HW146100   5.573   3.985   3.521 -0.2224  0.8280  0.3794
14702SOL    HW246101   5.647   3.999   3.652 -0.0607 -0.6250  0.4594
14703SOL     OW46102   7.377   6.060   5.501  0.2863  0.3155 -0.1305
14703SOL    HW146103   7.399   6.127   5.566  1.1910  0.2244 -0.3355
14703SOL    HW246104   7.367   6.109   5.419 -0.3152  0.3594 -0.0359
14704SOL     OW46105   8.647   1.590   3.541  0.1067  0.2046  0.7185
14704SOL    HW146106   8.691   1.579   3.626 -0.1178  1.6544  1.0495
14704SOL    HW246107   8.708   1.643   3.490  0.2341 -0.6502 -0.0386
14705SOL     OW46108   8.613   1.839   2.049 -0.4569 -0.0684 -0.0835
14705SOL    HW146109   8.593   1.893   1.972  0.3604  1.7562  0.9276
14705SOL    HW246110   8.531   1.836   2.098 -1.1229 -1.6527 -1.2198
14706SOL     OW46111   2.296   7.632   5.421 -0.4273  0.7869 -0.2300
14706SOL    HW146112   2.362   7.563   5.422 -1.1807  0.0254 -1.1860
14706SOL    HW246113   2.308   7.678   5.504 -0.0295 -0.6171  0.5192
14707SOL     OW46114   1.243   3.774   3.477  0.0048  0.5588 -0.4378
14707SOL    HW146115   1.301   3.822   3.418 -0.2704 -0.3611 -1.4859
14707SOL    HW246116   1.267   3.804   3.565  0.1858  2.2114 -1.0213
14708SOL     OW46117   3.087   8.455   0.679  0.4653  0.0852 -0.3865
14708SOL    HW146118   3.033   8.534   0.680  1.0171  0.4706 -0.3984
14708SOL    HW246119   3.037   8.392   0.627 -0.2720  0.2130  0.1470
14709SOL     OW46120   8.848   6.944   6.782  0.1265  0.5537 -0.0268
14709SOL    HW146121   8.937   6.927   6.753  1.1680  1.6583  2.2506
14709SOL    HW246122   8.817   6.860   6.816  0.4680  0.2864 -0.3677
14710SOL     OW46123   4.222   0.043   4.259 -0.5934 -0.5268  0.2949
14710SOL    HW146124   4.272   0.102   4.315 -1.4120  0.4976 -0.0056
14710SOL    HW246125   4.207   0.094   4.179 -0.5714 -1.4772 -0.3250
14711SOL     OW46126   0.685   1.121   4.449 -0.1604 -0.4797 -0.4411
14711SOL    HW146127   0.619   1.090   4.388  0.1521 -0.6723 -0.6834
14711SOL    HW246128   0.682   1.059   4.522  1.3780 -1.9208 -1.5128
14712SOL     OW46129   4.118   4.506   0.545  0.6957 -0.1076 -0.1517
14712SOL    HW146130   4.177   4.575   0.575 -0.5674  0.8048  0.2901
14712SOL    HW246131   4.049   4.551   0.498  0.1339 -1.1230 -0.3271
14713SOL     OW46132   8.848   2.588   5.793  0.3539 -0.0247  0.0628
14713SOL    HW146133   8.910   2.632   5.735  0.0638 -0.7791 -0.8488
14713SOL    HW246134   8.791   2.538   5.734 -0.2202 -0.4773  0.9743
14714SOL     OW46135   5.992   3.339   5.267 -0.7925  0.4561  0.9425
14714SOL    HW146136   5.979   3.405   5.336  0.4307  1.3301  0.3664
14714SOL    HW246137   6.074   3.296   5.290 -1.5283 -0.8261  1.2515
14715SOL     OW46138   3.001   7.682   8.710 -0.2586  0.8779 -0.0629
14715SOL    HW146139   3.064   7.738   8.663  0.7735  0.0434  0.2960
14715SOL    HW246140   3.027   7.688   8.802  0.6118 -1.0819 -0.1343
14716SOL     OW46141   1.758   5.743   1.001 -0.3644  0.2770 -0.1043
14716SOL    HW146142   1.684   5.765   1.059 -0.4609 -0.9237  0.2525
14716SOL    HW246143   1.717   5.718   0.919 -0.2292  1.9072 -0.7012
14717SOL     OW46144   3.665   1.974   0.201 -0.2059  0.4483 -0.1288
14717SOL    HW146145   3.712   1.891   0.195 -0.1258 -0.1327  4.6139
14717SOL    HW246146   3.573   1.948   0.209 -0.6391  1.1525 -2.2566
14718SOL     OW46147   7.150   2.602   7.576 -0.7682  0.2816 -0.1195
14718SOL    HW146148   7.126   2.530   7.634 -0.9097  1.7553  1.7410
14718SOL    HW246149   7.087   2.671   7.597  1.0358  1.9135  0.1548
14719SOL     OW46150   3.073   2.385   2.628 -0.2334  0.2405 -0.0031
14719SOL    HW146151   3.150   2.408   2.576  0.6303  1.4358  1.7062
14719SOL    HW246152   3.108   2.330   2.698 -1.2410 -0.6936 -0.2220
14720SOL     OW46153   5.027   6.023   5.430 -0.4554 -0.2162 -0.0383
14720SOL    HW146154   5.072   5.963   5.490  0.3153 -0.9151 -1.2670
14720SOL    HW246155   5.094   6.087   5.406 -0.1313 -1.1410 -1.7187
14721SOL     OW46156   8.455   6.570   5.380 -0.0075 -0.4394  0.5066
14721SOL    HW146157   8.446   6.665   5.374 -0.6149 -0.5695 -1.2115
14721SOL    HW246158   8.484   6.554   5.469 -0.4727  1.3168  1.0068
14722SOL     OW46159   8.102   8.614   7.985  0.3109  0.6094  0.4494
14722SOL    HW146160   8.180   8.593   7.934 -0.7420  1.5267 -1.6558
14722SOL    HW246161   8.084   8.705   7.965 -0.8196  0.6629  1.6040
14723SOL     OW46162   0.193   3.255   2.384 -0.2604  0.3525  0.4897
14723SOL    HW146163   0.172   3.191   2.452 -0.1997 -0.1737  0.0238
14723SOL    HW246164   0.256   3.314   2.425 -1.1137  0.7519  1.2579
14724SOL     OW46165   4.607   6.528   0.770 -0.1910  0.4785  0.2901
14724SOL    HW146166   4.575   6.457   0.714 -1.0435  0.3670  0.8839
14724SOL    HW246167   4.692   6.552   0.734  0.4030 -1.2664  0.4411
14725SOL     OW46168   3.514   6.634   0.163 -0.1860  0.0268 -0.0596
14725SOL    HW146169   3.510   6.680   0.079  0.0597  0.8843  0.3918
14725SOL    HW246170   3.560   6.694   0.221  2.5283 -1.8193 -0.1186
14726SOL     OW46171   7.753   5.487   3.555  0.2024 -0.3754  0.1117
14726SOL    HW146172   7.669   5.440   3.561 -0.1726  0.0238 -1.4264
14726SOL    HW246173   7.728   5.579   3.546  0.8706 -0.0761  1.2018
14727SOL     OW46174   5.637   6.323   1.811 -0.5260 -0.2004 -0.6092
14727SOL    HW146175   5.561   6.371   1.843 -0.5145 -0.1623 -0.6390
14727SOL    HW246176   5.690   6.308   1.889  0.2004  1.1432 -0.8162
14728SOL     OW46177   1.462   0.629   2.356  0.8143  0.1715 -0.2730
14728SOL    HW146178   1.408   0.550   2.369  1.5372 -0.2565  0.2100
14728SOL    HW246179   1.413   0.681   2.293 -0.9826  0.5512  1.3523
14729SOL     OW46180   0.701   0.293   5.417  0.0908 -0.1862 -0.0346
14729SOL    HW146181   0.740   0.208   5.435  1.2071  0.3326  0.0843
14729SOL    HW246182   0.713   0.306   5.322 -2.4983 -1.3043 -0.6144
14730SOL     OW46183   1.643   1.142   5.107 -0.0076 -0.6585  0.1163
14730SOL    HW146184   1.577   1.074   5.096 -0.8706  0.0282  0.9068
14730SOL    HW246185   1.696   1.112   5.180  0.1976 -0.9179 -0.1333
14731SOL     OW46186   2.722   6.598   4.248  0.0418  0.2368  0.1943
14731SOL    HW146187   2.714   6.505   4.230  0.7622  0.0648  0.7417
14731SOL    HW246188   2.679   6.610   4.333  1.8087  0.0179  1.1608
14732SOL     OW46189   4.988   1.425   3.259  0.0493  0.3526  0.3871
14732SOL    HW146190   5.006   1.428   3.353 -2.0968 -2.5119  1.0014
14732SOL    HW246191   4.924   1.495   3.245 -1.2371 -0.5372  1.5428
14733SOL     OW46192   4.858   0.146   0.084 -0.9086 -0.2758  0.1281
14733SOL    HW146193   4.901   0.165   0.167 -0.7911 -1.4827  0.3622
14733SOL    HW246194   4.765   0.156   0.103 -0.8276  0.6095  0.0849
14734SOL     OW46195   0.555   3.017   3.957 -0.1563 -0.0427  0.0521
14734SOL    HW146196   0.606   2.945   3.992 -0.0849 -1.3298 -2.4965
14734SOL    HW246197   0.480   2.976   3.914 -0.2168  1.3705 -1.3167
14735SOL     OW46198   1.269   7.738   7.242  0.1466  0.2591  0.2286
14735SOL    HW146199   1.213   7.813   7.220  0.7815  0.7839  0.3919
14735SOL    HW246200   1.358   7.771   7.234  0.4520 -0.6243 -0.2128
14736SOL     OW46201   7.074   7.470   3.706  0.0907 -0.5679  0.0330
14736SOL    HW146202   7.013   7.449   3.635 -0.0566 -0.8444  0.2399
14736SOL    HW246203   7.161   7.455   3.668  0.1556  1.7493 -0.9178
14737SOL     OW46204   7.964   5.296   0.248  0.7618 -0.1845 -0.1095
14737SOL    HW146205   8.012   5.325   0.326  0.4577  0.4187 -0.1393
14737SOL    HW246206   7.946   5.204   0.264  1.8602 -0.3981 -0.0623
14738SOL     OW46207   1.033   2.138   5.599  0.0766  0.8841 -0.3431
14738SOL    HW146208   1.065   2.227   5.612  0.9428  0.4520  0.6431
14738SOL    HW246209   0.951   2.149   5.551 -0.3993  2.2775  0.7060
14739SOL     OW46210   2.493   5.777   6.741  0.2463  0.2509 -0.0387
14739SOL    HW146211   2.454   5.707   6.794  0.0760  1.0503  0.9165
14739SOL    HW246212   2.520   5.733   6.661 -1.9782 -0.4777 -0.4646
14740SOL     OW46213   7.829   5.070   1.631 -0.0797 -0.3756  0.3911
14740SOL    HW146214   7.796   5.053   1.719 -2.2332 -0.6268 -0.4077
14740SOL    HW246215   7.756   5.113   1.586  1.2232  0.3894 -1.0755
14741SOL     OW46216   4.916   6.328   5.310 -0.0179  0.0425 -0.0889
14741SOL    HW146217   4.927   6.371   5.225  1.2523 -2.0024 -1.0356
14741SOL    HW246218   4.845   6.266   5.295 -0.9037  0.8000  0.8581
14742SOL     OW46219   6.057   2.028   1.140  0.3707 -0.4395  0.0504
14742SOL    HW146220   6.147   2.061   1.144 -0.0723  0.6813  1.4153
14742SOL    HW246221   6.039   1.998   1.229 -0.2058 -1.8351 -0.5107
14743SOL     OW46222   1.277   5.932   2.389  0.0558  0.3722  0.2132
14743SOL    HW146223   1.267   5.917   2.483 -0.7557 -1.2390 -0.1159
14743SOL    HW246224   1.189   5.949   2.358 -0.0259 -1.3870 -0.6129
14744SOL     OW46225   5.812   8.724   6.287  0.1758 -0.0610 -0.1866
14744SOL    HW146226   5.870   8.757   6.355 -2.2578  2.4762  0.8805
14744SOL    HW246227   5.775   8.643   6.324  0.7595 -0.0732  0.3943
14745SOL     OW46228   4.413   7.712   4.482 -0.1887 -0.5341 -0.2424
14745SOL    HW146229   4.460   7.630   4.495 -1.7066 -1.4381 -0.2413
14745SOL    HW246230   4.324   7.694   4.512 -0.2865  1.4771  0.8929
14746SOL     OW46231   5.953   2.321   2.433 -0.4219 -0.1746  0.2777
14746SOL    HW146232   6.002   2.309   2.351 -2.3473  3.0163 -1.5526
14746SOL    HW246233   5.935   2.415   2.436 -2.7672 -0.5848  3.0120
14747SOL     OW46234   3.060   1.047   5.458  0.4311 -0.1339 -0.3913
14747SOL    HW146235   3.016   1.074   5.538  2.2139  0.5883  0.3906
14747SOL    HW246236   3.142   1.008   5.488  0.5459 -1.0777 -1.8213
14748SOL     OW46237   0.246   5.545   4.710 -0.0824 -0.2810  0.2120
14748SOL    HW146238   0.171   5.562   4.652 -1.3499 -0.4060  1.7432
14748SOL    HW246239   0.241   5.451   4.727  1.4436 -0.6212 -0.9588
14749SOL     OW46240   5.603   6.520   3.459 -0.0562 -0.4161 -0.0985
14749SOL    HW146241   5.669   6.568   3.509 -2.2940 -0.1981  2.9326
14749SOL    HW246242   5.553   6.589   3.415 -0.3209 -0.3039  0.3674
14750SOL     OW46243   1.914   7.250   5.153 -0.1501 -0.3411  0.1579
14750SOL    HW146244   1.873   7.164   5.165 -0.4480 -0.1042  0.8226
14750SOL    HW246245   1.988   7.250   5.213 -0.8717  0.3390  1.0607
14751SOL     OW46246   7.353   5.243   4.683 -0.4498  0.3152  0.4496
14751SOL    HW146247   7.311   5.256   4.598 -1.3763  0.3199  0.9056
14751SOL    HW246248   7.420   5.312   4.687  0.1735 -0.1928 -0.6177
14752SOL     OW46249   0.205   8.258   3.043  0.2818  0.1017 -0.4525
14752SOL    HW146250   0.145   8.298   3.106  0.7526  2.3866 -1.3515
14752SOL    HW246251   0.265   8.207   3.097 -0.9454 -0.2162  0.6809
14753SOL     OW46252   2.894   2.657   1.977 -0.1692 -0.1813  0.3182
14753SOL    HW146253   2.930   2.731   2.025  0.9231  0.5025 -1.4453
14753SOL    HW246254   2.907   2.582   2.035  0.7096  0.6554  1.2406
14754SOL     OW46255   5.787   4.942   7.754  0.1177  0.4901  0.5772
14754SOL    HW146256   5.857   5.006   7.763  0.3896  0.1838  0.7073
14754SOL    HW246257   5.767   4.916   7.845  0.8920 -0.5301  0.4824
14755SOL     OW46258   8.080   2.015   3.470 -0.2169  0.2821 -0.0571
14755SOL    HW146259   8.038   2.030   3.385 -0.1427 -3.3799 -0.8934
14755SOL    HW246260   8.165   2.057   3.462 -1.1701  2.1979 -0.7740
14756SOL     OW46261   2.548   5.453   2.672 -0.5766 -0.6580  0.2047
14756SOL    HW146262   2.596   5.420   2.597 -1.7443  0.7151 -1.1993
14756SOL    HW246263   2.458   5.427   2.657 -0.6911 -1.1735  1.6248
14757SOL     OW46264   4.045   4.769   1.514  0.9423  0.8484 -0.1374
14757SOL    HW146265   4.110   4.707   1.481  0.2015  0.3951 -0.7531
14757SOL    HW246266   4.022   4.823   1.439 -0.3169  0.1894 -0.2527
14758SOL     OW46267   0.363   6.771   6.231  0.1100  0.3450  0.4725
14758SOL    HW146268   0.281   6.741   6.192 -0.1747  0.1024  1.2332
14758SOL    HW246269   0.350   6.865   6.243  0.2745  0.4548 -0.1867
14759SOL     OW46270   3.634   6.041   5.278  0.0369 -0.0868 -0.3949
14759SOL    HW146271   3.543   6.012   5.274  0.0096  0.0707 -1.1703
14759SOL    HW246272   3.642   6.085   5.363 -1.4199  2.4981 -1.4715
14760SOL     OW46273   5.911   6.184   1.071  0.1480 -0.3582  0.3354
14760SOL    HW146274   5.965   6.144   1.140  0.2357 -0.4797  0.1976
14760SOL    HW246275   5.871   6.110   1.026 -0.0362 -0.2725  0.3566
14761SOL     OW46276   8.178   6.648   2.667  0.4658 -0.6568  0.0284
14761SOL    HW146277   8.200   6.715   2.732 -1.2953  0.4630 -0.4511
14761SOL    HW246278   8.130   6.582   2.716  0.5983 -0.6579  0.1594
14762SOL     OW46279   0.761   4.089   3.552 -0.1949  0.1275 -0.1203
14762SOL    HW146280   0.818   4.012   3.549  0.4987  0.5477  1.3631
14762SOL    HW246281   0.714   4.081   3.635 -0.9742  0.7133 -0.4950
14763SOL     OW46282   1.004   5.554   6.052  0.1152  1.0297  0.2961
14763SOL    HW146283   1.028   5.530   6.141 -0.0922 -1.9403 -0.3198
14763SOL    HW246284   0.927   5.500   6.033  0.9756  0.5087 -2.1018
14764SOL     OW46285   2.861   5.584   7.024 -0.6075 -0.2880  0.1432
14764SOL    HW146286   2.836   5.676   7.031  2.1499  0.4493  2.1805
14764SOL    HW246287   2.930   5.582   6.958  1.1421 -0.3477  1.8774
14765SOL     OW46288   8.556   5.666   3.346  0.2624  0.0476  0.2715
14765SOL    HW146289   8.518   5.752   3.364  0.7537 -0.0584  1.9453
14765SOL    HW246290   8.650   5.677   3.361  0.2862 -0.8650  0.8734
14766SOL     OW46291   5.946   5.451   5.039  0.1042  0.6442  0.1369
14766SOL    HW146292   5.940   5.358   5.059 -0.4044  0.8250  0.8635
14766SOL    HW246293   5.861   5.487   5.065  0.2888  1.3050 -0.1490
14767SOL     OW46294   3.581   1.033   6.106 -0.1642  0.4822 -0.1916
14767SOL    HW146295   3.641   0.969   6.146 -0.5402 -0.4576 -1.0790
14767SOL    HW246296   3.515   1.050   6.173 -2.0259 -2.7022 -1.0153
14768SOL     OW46297   0.588   8.295   8.657  0.3581 -0.0989 -0.1884
14768SOL    HW146298   0.626   8.290   8.744 -1.9066 -0.0985  0.8571
14768SOL    HW246299   0.652   8.251   8.600  0.5703 -2.7435  1.9131
14769SOL     OW46300   3.055   7.168   0.430 -0.6212  0.1742 -0.1969
14769SOL    HW146301   3.067   7.079   0.461 -0.6867  0.6737  1.3537
14769SOL    HW246302   3.125   7.218   0.472 -1.0071  0.9779 -0.4800
14770SOL     OW46303   4.964   7.185   4.457 -0.5166 -0.0147  0.1667
14770SOL    HW146304   4.893   7.223   4.508 -0.4247  0.6382 -0.1858
14770SOL    HW246305   5.025   7.151   4.523 -0.5369  0.5684  0.4932
14771SOL     OW46306   7.276   2.257   4.173 -0.2758  0.0763 -0.2919
14771SOL    HW146307   7.223   2.195   4.123  0.1857  0.0468 -0.7526
14771SOL    HW246308   7.235   2.259   4.259 -0.1298 -1.0798 -0.1800
14772SOL     OW46309   4.827   6.392   3.095 -0.1234 -0.0707  0.9437
14772SOL    HW146310   4.860   6.417   3.181 -1.1878 -1.3311  1.7485
14772SOL    HW246311   4.895   6.333   3.060 -0.3287 -0.6563  1.5185
14773SOL     OW46312   0.479   2.283   4.551 -0.5216 -0.0426 -0.3816
14773SOL    HW146313   0.458   2.203   4.503 -0.9303 -0.7236  0.8792
14773SOL    HW246314   0.569   2.269   4.582 -1.1942 -0.8561  1.3667
14774SOL     OW46315   8.353   5.152   8.354 -0.2164 -0.3317 -0.2916
14774SOL    HW146316   8.307   5.225   8.312 -0.8677 -0.6196 -0.0947
14774SOL    HW246317   8.302   5.134   8.433  0.9812  0.1952  0.6345
14775SOL     OW46318   0.648   3.235   2.910  0.0973  0.1316 -0.8586
14775SOL    HW146319   0.563   3.278   2.908 -0.3630 -0.5616  1.3806
14775SOL    HW246320   0.711   3.305   2.889 -0.7951  1.4083  0.5014
14776SOL     OW46321   5.136   7.003   5.913 -0.1215  0.3348 -0.2638
14776SOL    HW146322   5.154   7.048   5.831  2.0130  0.6100  0.2902
14776SOL    HW246323   5.173   6.915   5.901 -1.5553 -0.2945 -0.2680
14777SOL     OW46324   5.200   8.121   3.460  0.2053 -0.1635  0.4498
14777SOL    HW146325   5.147   8.195   3.430  0.9377 -0.3497 -1.4443
14777SOL    HW246326   5.158   8.044   3.421  1.2892 -0.4020 -0.3039
14778SOL     OW46327   2.467   8.228   2.887 -0.0554  0.0299  0.7119
14778SOL    HW146328   2.382   8.185   2.878 -0.0021 -0.0395  0.5421
14778SOL    HW246329   2.459   8.307   2.833 -0.2644  0.4010  1.2758
14779SOL     OW46330   6.282   1.154   6.809 -0.1251 -0.6194 -0.6734
14779SOL    HW146331   6.209   1.109   6.767  0.0725 -0.6141 -1.0235
14779SOL    HW246332   6.352   1.088   6.812 -0.5090 -1.0091  0.7269
14780SOL     OW46333   0.301   4.851   5.798 -0.5172  0.0738  0.2721
14780SOL    HW146334   0.380   4.802   5.775 -0.1535  0.9053 -0.2855
14780SOL    HW246335   0.254   4.860   5.715 -0.1010  1.4950  0.1696
14781SOL     OW46336   7.416   4.817   2.551 -0.0007  0.1569  0.0412
14781SOL    HW146337   7.431   4.748   2.487 -0.4583 -0.8655  1.0083
14781SOL    HW246338   7.503   4.852   2.571  0.4525 -1.4030  0.9087
14782SOL     OW46339   6.965   6.364   6.289  0.1793  0.1820 -0.3470
14782SOL    HW146340   6.955   6.405   6.203  0.8561  0.3324 -0.3640
14782SOL    HW246341   6.890   6.395   6.340 -0.5362 -0.3623 -1.0545
14783SOL     OW46342   0.284   4.111   1.417  0.2062 -0.3744  0.0541
14783SOL    HW146343   0.284   4.021   1.449 -0.2068  0.1922  1.7554
14783SOL    HW246344   0.191   4.135   1.410  0.3098 -0.1013 -0.4534
14784SOL     OW46345   5.060   0.640   6.024  0.4607  0.0276 -0.4355
14784SOL    HW146346   5.093   0.595   6.102  2.6457  0.9241 -0.7753
14784SOL    HW246347   5.089   0.585   5.951 -1.7233 -0.9010 -0.6803
14785SOL     OW46348   6.251   3.612   4.553 -0.1619  0.4535  0.3883
14785SOL    HW146349   6.252   3.544   4.620 -1.5842  0.6311  0.6359
14785SOL    HW246350   6.314   3.677   4.584  0.8118 -0.4887  0.4194
14786SOL     OW46351   6.802   2.620   7.177  0.1520 -0.2580 -0.1443
14786SOL    HW146352   6.738   2.554   7.205  1.3693 -1.4280  0.0037
14786SOL    HW246353   6.846   2.581   7.101  2.5395 -0.7343  1.3561
14787SOL     OW46354   4.876   1.797   6.555 -0.3555 -0.1536  0.3591
14787SOL    HW146355   4.899   1.704   6.551  0.1257 -0.0097 -0.4799
14787SOL    HW246356   4.936   1.833   6.620 -0.7173 -0.4679  0.8792
14788SOL     OW46357   3.847   6.245   0.272 -0.1084 -0.2499  0.9171
14788SOL    HW146358   3.761   6.285   0.277  0.3306  0.7768  0.5767
14788SOL    HW246359   3.902   6.298   0.330  0.7116  0.2541 -0.2901
14789SOL     OW46360   0.094   3.738   7.978  0.5553 -0.0289  0.7991
14789SOL    HW146361   0.155   3.808   7.953  0.4496 -0.1070  0.3051
14789SOL    HW246362   0.040   3.777   8.047 -0.7699  1.0541 -0.7769
14790SOL     OW46363   5.439   7.097   4.153  0.3264  0.3764  0.0304
14790SOL    HW146364   5.347   7.101   4.125  0.5267  2.4683 -0.5567
14790SOL    HW246365   5.489   7.104   4.071  1.0383 -1.1713  0.3032
14791SOL     OW46366   8.683   0.004   1.462 -0.0253 -0.3971 -0.0604
14791SOL    HW146367   8.692   0.076   1.398  2.6877 -1.8852 -1.5355
14791SOL    HW246368   8.588  -0.006   1.474 -0.5455  3.2411  0.0981
14792SOL     OW46369   6.310   7.200   7.960  0.2265  0.5538 -0.5901
14792SOL    HW146370   6.370   7.253   8.013 -0.8470  2.1812 -0.9248
14792SOL    HW246371   6.360   7.179   7.881  0.8132  0.7359 -0.2751
14793SOL     OW46372   0.271   4.126   1.967 -0.0368 -0.5266  0.2870
14793SOL    HW146373   0.208   4.153   2.033 -1.2485 -0.6025 -0.7922
14793SOL    HW246374   0.249   4.034   1.949 -1.6066  0.2258 -2.1768
14794SOL     OW46375   0.897   3.444   7.675 -0.5984 -0.2115  0.5511
14794SOL    HW146376   0.965   3.400   7.727  1.0847  0.6080 -0.8495
14794SOL    HW246377   0.875   3.381   7.606 -2.8232 -1.2957  2.1256
14795SOL     OW46378   3.385   1.064   6.301 -0.2101  0.0360  0.2764
14795SOL    HW146379   3.446   1.008   6.348  0.9971  0.9867 -0.1078
14795SOL    HW246380   3.306   1.064   6.355  0.4580 -0.4553  1.2800
14796SOL     OW46381   8.553   5.715   5.049  0.3689 -0.0382 -0.2586
14796SOL    HW146382   8.489   5.774   5.010  1.3648  0.9319 -0.4731
14796SOL    HW246383   8.626   5.713   4.987  1.1867  0.0654  0.6628
14797SOL     OW46384   0.253   0.358   8.713  0.0549 -0.5315 -0.2483
14797SOL    HW146385   0.196   0.355   8.636 -1.1879 -0.4477  0.6432
14797SOL    HW246386   0.305   0.278   8.707  0.0409 -0.4846 -1.2108
14798SOL     OW46387   5.610   8.800   1.159 -0.1487  0.3567  0.4187
14798SOL    HW146388   5.563   8.735   1.107  0.8680 -0.6171  0.6911
14798SOL    HW246389   5.544   8.867   1.178 -0.2676  1.5077 -3.2670
14799SOL     OW46390   4.082   6.822   1.129  0.0296  0.0994 -0.9233
14799SOL    HW146391   4.099   6.914   1.108 -0.2809  0.0157 -1.5575
14799SOL    HW246392   4.146   6.801   1.197  0.0422  0.8094 -0.7127
14800SOL     OW46393   7.512   3.515   1.024 -0.0005  0.0164 -0.2622
14800SOL    HW146394   7.466   3.526   1.108 -0.0678  0.8991 -0.4025
14800SOL    HW246395   7.483   3.590   0.971 -3.3309 -2.6603 -2.6632
14801SOL     OW46396   5.524   2.272   2.976 -0.4613  0.0016  0.4359
14801SOL    HW146397   5.451   2.231   3.022 -2.8166 -0.8616 -3.5136
14801SOL    HW246398   5.588   2.201   2.965 -0.7228 -0.2884  0.7692
14802SOL     OW46399   3.995   1.751   1.340 -0.0036 -0.1748  0.2284
14802SOL    HW146400   4.048   1.674   1.317  1.9731  0.8825  1.0369
14802SOL    HW246401   3.942   1.768   1.262  1.3494 -0.8765 -0.8739
14803SOL     OW46402   3.501   7.434   5.968 -0.0512 -0.1124  0.1721
14803SOL    HW146403   3.431   7.369   5.974  0.0550 -0.1676  1.0090
14803SOL    HW246404   3.562   7.408   6.037 -0.3657  1.2922  1.0187
14804SOL     OW46405   1.864   1.396   6.631  0.0194 -1.0477 -0.5093
14804SOL    HW146406   1.957   1.416   6.615  0.2743 -1.9765 -0.2621
14804SOL    HW246407   1.840   1.454   6.704  0.2487 -0.4203 -0.9210
14805SOL     OW46408   8.865   4.425   3.878  0.0522  0.9621 -0.1967
14805SOL    HW146409   8.912   4.447   3.958 -1.8009 -1.6064  1.7829
14805SOL    HW246410   8.901   4.340   3.852 -1.4344  0.2976 -0.2396
14806SOL     OW46411   1.235   5.662   7.130 -0.2738 -0.3437  0.4071
14806SOL    HW146412   1.210   5.583   7.083 -2.5692  0.5604 -0.0577
14806SOL    HW246413   1.331   5.662   7.130 -0.2240 -3.0118  0.3248
14807SOL     OW46414   8.854   1.010   4.447 -0.3337 -0.1887 -0.0354
14807SOL    HW146415   8.923   0.990   4.511 -1.6962  2.3228  2.4290
14807SOL    HW246416   8.895   1.072   4.387  0.1003 -0.1583  0.2826
14808SOL     OW46417   0.379   6.940   1.815 -0.1963 -0.2637 -0.4861
14808SOL    HW146418   0.350   7.031   1.826  1.5087  0.5716 -2.2795
14808SOL    HW246419   0.451   6.931   1.878 -1.4435 -0.9633  0.8976
14809SOL     OW46420   1.383   0.103   6.838 -0.3248  0.4440  0.3319
14809SOL    HW146421   1.470   0.142   6.840 -0.5248  1.0151 -0.8702
14809SOL    HW246422   1.325   0.175   6.811 -0.8094 -0.4754 -1.2265
14810SOL     OW46423   5.490   4.902   2.432  0.3198 -0.0510 -0.3575
14810SOL    HW146424   5.563   4.842   2.444  0.1147 -0.1018  0.7418
14810SOL    HW246425   5.441   4.866   2.358  1.5328  0.1360 -1.2856
14811SOL     OW46426   4.362   8.795   4.642  0.4652  0.2560 -0.0928
14811SOL    HW146427   4.379   8.758   4.729  2.5709  2.5370  0.5848
14811SOL    HW246428   4.279   8.841   4.652  0.4592  0.1105  0.5920
14812SOL     OW46429   6.128   3.541   7.752  0.2038  0.1356  0.2064
14812SOL    HW146430   6.157   3.496   7.672  1.3569  1.5161 -0.2036
14812SOL    HW246431   6.130   3.634   7.729  0.6008  0.5698  1.8640
14813SOL     OW46432   1.948   0.376   4.407 -0.1600  0.0241 -0.3604
14813SOL    HW146433   2.020   0.429   4.443  1.5931 -0.5345 -2.8091
14813SOL    HW246434   1.917   0.326   4.482  1.0207  1.3560  1.1060
14814SOL     OW46435   5.446   4.313   3.676  0.2802  0.3571 -0.0160
14814SOL    HW146436   5.392   4.323   3.754  2.1272  1.8094  1.1681
14814SOL    HW246437   5.494   4.231   3.690 -1.2971 -0.7781 -0.9311
14815SOL     OW46438   0.428   5.437   1.833  0.0247  0.3088  0.4225
14815SOL    HW146439   0.402   5.500   1.766  1.4154  1.3099  0.7906
14815SOL    HW246440   0.522   5.450   1.844  0.3885 -1.9348  0.4272
14816SOL     OW46441   6.055   1.522   0.994  0.5860 -0.0069 -0.7414
14816SOL    HW146442   5.967   1.501   1.024  0.0527  2.1482 -0.6576
14816SOL    HW246443   6.091   1.579   1.061  1.7435 -0.1865 -1.1824
14817SOL     OW46444   3.286   1.771   1.941  0.3417  0.4712  0.5128
14817SOL    HW146445   3.216   1.821   1.983  0.8648  0.9311  0.8332
14817SOL    HW246446   3.251   1.681   1.939  0.1773  0.4823  1.6634
14818SOL     OW46447   1.142   8.242   8.363  0.1386  0.1174 -0.2296
14818SOL    HW146448   1.172   8.238   8.454 -1.4386 -2.6537  0.2643
14818SOL    HW246449   1.124   8.335   8.348 -0.0947  0.5749  2.4615
14819SOL     OW46450   3.870   2.512   8.381  0.3680 -0.3998  0.6296
14819SOL    HW146451   3.959   2.481   8.361  0.3992  0.0356  0.0738
14819SOL    HW246452   3.880   2.563   8.462  1.0052  1.3721 -0.5074
14820SOL     OW46453   5.068   8.082   8.705 -0.1856 -0.3981  0.2845
14820SOL    HW146454   4.987   8.129   8.726  1.2588  1.6440  1.7293
14820SOL    HW246455   5.082   8.024   8.781 -0.0771 -0.4172  0.2497
14821SOL     OW46456   8.080   5.599   5.594  0.3468 -0.2040 -0.9365
14821SOL    HW146457   8.158   5.546   5.613 -0.1790 -0.9536 -0.8363
14821SOL    HW246458   8.062   5.645   5.676  0.8375  0.1873 -1.0410
14822SOL     OW46459   8.441   3.178   5.194  0.2850 -0.3055  0.1927
14822SOL    HW146460   8.371   3.238   5.169  2.3011  1.3885 -1.8971
14822SOL    HW246461   8.471   3.209   5.279 -0.5751 -0.1987  0.4639
14823SOL     OW46462   4.907   7.754   2.377  0.1095  0.4042  0.0829
14823SOL    HW146463   4.953   7.749   2.293 -1.2357  2.4197 -0.8711
14823SOL    HW246464   4.976   7.750   2.443  1.5513  1.8374 -1.2417
14824SOL     OW46465   8.570   8.551   3.214 -0.1077 -0.0626  0.0985
14824SOL    HW146466   8.594   8.529   3.124  0.4840  0.9741 -0.0068
14824SOL    HW246467   8.651   8.539   3.264 -0.4225 -0.5889  0.4991
14825SOL     OW46468   6.577   1.079   2.823  0.9334 -0.2994 -0.0688
14825SOL    HW146469   6.512   1.009   2.813  1.5758 -0.9304  0.0766
14825SOL    HW246470   6.528   1.152   2.862  0.4862 -1.0210  0.7390
14826SOL     OW46471   1.612   8.462   4.809 -0.9531 -0.0263  0.4650
14826SOL    HW146472   1.646   8.501   4.890 -0.1962  1.4310 -0.5041
14826SOL    HW246473   1.591   8.372   4.833  2.7703 -0.8200  1.4346
14827SOL     OW46474   8.109   0.055   3.268  0.4099 -0.3435  0.8542
14827SOL    HW146475   8.162   0.133   3.251  0.8517 -1.0384 -1.1738
14827SOL    HW246476   8.019   0.085   3.265  0.6048  0.2582  1.0136
14828SOL     OW46477   0.260   4.478   3.934  0.4023  0.0686 -0.3630
14828SOL    HW146478   0.319   4.485   3.860 -0.0109 -1.2041 -0.8382
14828SOL    HW246479   0.255   4.384   3.953 -2.8301 -0.1140 -1.5033
14829SOL     OW46480   6.367   5.736   6.035 -0.0301 -0.1156 -0.3945
14829SOL    HW146481   6.437   5.767   6.092 -0.3406 -0.2534  0.0615
14829SOL    HW246482   6.326   5.817   6.002 -2.2147  0.0743  2.4600
14830SOL     OW46483   1.570   6.528   6.826  0.6504 -0.0400  0.0757
14830SOL    HW146484   1.511   6.464   6.867  0.9275 -0.6915 -0.5257
14830SOL    HW246485   1.540   6.532   6.735  0.8733  0.4090  0.0232
14831SOL     OW46486   0.626   3.193   1.880  0.2663 -0.0033  1.0172
14831SOL    HW146487   0.560   3.207   1.813  1.1623  2.1911  0.4942
14831SOL    HW246488   0.668   3.111   1.856 -0.3867  0.0254 -0.2736
14832SOL     OW46489   8.875   7.540   6.154  0.0009  0.4293  0.6302
14832SOL    HW146490   8.853   7.507   6.066  1.4338  0.0422  0.3931
14832SOL    HW246491   8.897   7.632   6.140 -1.3560  0.8116  0.8651
14833SOL     OW46492   5.217   1.428   8.499  0.0798  0.0622 -0.1330
14833SOL    HW146493   5.280   1.438   8.428 -1.9369  2.2939 -1.8002
14833SOL    HW246494   5.133   1.418   8.455 -1.0193 -0.6537  1.9776
14834SOL     OW46495   4.048   1.592   6.614 -0.2231  0.1029 -0.4380
14834SOL    HW146496   4.143   1.598   6.628 -0.3153 -0.2195  0.3702
14834SOL    HW246497   4.030   1.498   6.612 -0.4454  0.1543 -1.2130
14835SOL     OW46498   6.395   5.162   7.858 -0.0823  0.2000  0.2998
14835SOL    HW146499   6.484   5.192   7.841 -0.0341  0.4406  0.9652
14835SOL    HW246500   6.388   5.079   7.810  0.1673  0.6715 -0.5721
14836SOL     OW46501   3.016   7.840   6.530 -0.2319  0.0580  0.1679
14836SOL    HW146502   2.978   7.856   6.444  0.1875  0.3503  0.0345
14836SOL    HW246503   3.110   7.836   6.515 -0.0903  0.9157  0.7222
14837SOL     OW46504   1.649   2.244   0.533 -0.4294  0.0450 -0.0007
14837SOL    HW146505   1.553   2.249   0.541 -0.2920  1.6583  0.9258
14837SOL    HW246506   1.680   2.227   0.622  0.2124  1.1472  0.0066
14838SOL     OW46507   8.546   8.253   2.060  0.7313 -0.2958 -0.3799
14838SOL    HW146508   8.489   8.325   2.033 -0.2838 -0.9362  0.0291
14838SOL    HW246509   8.635   8.288   2.049  0.2576  1.1902  0.2896
14839SOL     OW46510   0.772   7.985   2.488  0.1815  0.3793  0.8509
14839SOL    HW146511   0.842   8.049   2.481  0.9685 -0.1523  3.0970
14839SOL    HW246512   0.816   7.902   2.503 -0.7769 -0.9425 -2.5893
14840SOL     OW46513   0.424   0.017   7.271 -0.3574  0.6028 -0.7263
14840SOL    HW146514   0.385  -0.020   7.192 -1.0542  1.8378 -0.9873
14840SOL    HW246515   0.382   0.103   7.281  0.5195  0.9325  0.3693
14841SOL     OW46516   1.693   3.156   2.644 -0.6111 -0.1822 -0.0426
14841SOL    HW146517   1.680   3.180   2.553 -3.1131 -1.4791 -0.1101
14841SOL    HW246518   1.616   3.189   2.690 -0.0121 -0.6557  1.3760
14842SOL     OW46519   7.516   6.991   0.955 -0.4270 -0.1654 -0.0594
14842SOL    HW146520   7.502   6.960   1.044  0.3840 -2.6071 -0.6909
14842SOL    HW246521   7.434   6.970   0.910 -0.4499  0.0854 -0.1368
14843SOL     OW46522   3.130   2.465   3.128  0.4440 -0.0897 -0.0341
14843SOL    HW146523   3.202   2.528   3.119  1.0020 -0.8473 -1.1090
14843SOL    HW246524   3.157   2.409   3.201 -0.3318  1.2150  1.3294
14844SOL     OW46525   0.057   7.545   3.241  0.0528  0.5419 -0.0176
14844SOL    HW146526   0.007   7.607   3.188  0.8041 -1.0045 -2.7503
14844SOL    HW246527   0.140   7.535   3.194  1.3820  0.1063  2.2827
14845SOL     OW46528   7.066   5.224   3.430 -0.7216  0.1107 -0.5791
14845SOL    HW146529   6.986   5.239   3.381 -2.0647 -2.0732  0.7205
14845SOL    HW246530   7.081   5.305   3.479 -1.3003  1.0557 -1.9327
14846SOL     OW46531   7.900   8.528   8.153  0.2516  0.4020  0.2560
14846SOL    HW146532   7.863   8.440   8.145  0.1652  0.5072 -0.5413
14846SOL    HW246533   7.967   8.533   8.084  0.0303  1.0700  0.0828
14847SOL     OW46534   6.938   4.699   8.262  0.1042  0.8812  0.3709
14847SOL    HW146535   6.899   4.694   8.349  0.3284 -0.3108  0.4198
14847SOL    HW246536   7.013   4.757   8.272  1.0844 -0.4956  1.3683
14848SOL     OW46537   0.180   8.660   3.380 -0.3196 -0.0784 -0.0071
14848SOL    HW146538   0.099   8.615   3.406 -1.3011  1.7130  0.1950
14848SOL    HW246539   0.181   8.740   3.433  1.4167  0.1117 -0.2828
14849SOL     OW46540   6.499   3.973   6.037 -0.2122  0.1438  0.1819
14849SOL    HW146541   6.499   4.019   5.953 -0.5267 -1.6092 -0.8075
14849SOL    HW246542   6.587   3.934   6.044 -0.8434 -1.4231 -0.3243
14850SOL     OW46543   2.342   0.100   1.744 -0.1868 -0.2256  0.0812
14850SOL    HW146544   2.435   0.113   1.725 -0.3681 -0.4573 -1.0462
14850SOL    HW246545   2.306   0.189   1.747  0.1918 -0.0951  1.2653
14851SOL     OW46546   5.897   7.332   1.638  0.0750  0.1319  0.0672
14851SOL    HW146547   5.827   7.369   1.585 -1.5405  1.3453  2.8634
14851SOL    HW246548   5.860   7.253   1.676  0.5588  0.2594  0.8265
14852SOL     OW46549   5.242   0.318   7.504  0.2697  0.3088 -0.0944
14852SOL    HW146550   5.238   0.331   7.598 -0.8628  0.1382 -0.1130
14852SOL    HW246551   5.170   0.259   7.484  1.3851 -0.8305 -0.8869
14853SOL     OW46552   1.755   0.481   2.972 -0.5371  0.1866  0.2260
14853SOL    HW146553   1.704   0.416   3.020 -1.4704  0.1988 -0.7174
14853SOL    HW246554   1.696   0.555   2.962  0.2827  0.9174  0.6720
14854SOL     OW46555   8.231   7.773   4.268  0.5575 -0.0591  0.2621
14854SOL    HW146556   8.224   7.816   4.182 -2.0818 -1.8089 -0.5477
14854SOL    HW246557   8.144   7.784   4.307 -0.4547 -4.5870 -0.1287
14855SOL     OW46558   1.259   0.335   5.585  0.0531 -0.2775  0.1626
14855SOL    HW146559   1.326   0.380   5.533 -0.1060  0.8829  0.9251
14855SOL    HW246560   1.222   0.403   5.640 -2.4647 -0.6695 -0.9083
14856SOL     OW46561   2.576   7.496   6.765 -0.0469 -0.0917 -0.5785
14856SOL    HW146562   2.536   7.549   6.696  0.1365  1.5913  0.5588
14856SOL    HW246563   2.668   7.523   6.765 -0.4388  1.5041  1.6505
14857SOL     OW46564   8.104   4.447   8.622 -0.5588  0.2331  0.2059
14857SOL    HW146565   8.017   4.408   8.608 -0.9303  0.7791  0.8968
14857SOL    HW246566   8.117   4.505   8.547 -0.5718 -0.2260 -0.1548
14858SOL     OW46567   4.896   7.079   8.471  0.3399 -0.0816  0.1560
14858SOL    HW146568   4.915   7.126   8.390  2.0171 -0.3909  0.3267
14858SOL    HW246569   4.872   6.991   8.443  0.8588 -0.1705 -0.0252
14859SOL     OW46570   7.655   6.027   3.195 -0.3644 -0.5269 -0.8004
14859SOL    HW146571   7.646   6.103   3.137 -0.5956  0.4471  0.4623
14859SOL    HW246572   7.728   5.977   3.158 -0.5025  0.0680 -1.9161
14860SOL     OW46573   1.910   3.560   6.131 -0.6571 -0.4545 -0.0074
14860SOL    HW146574   1.892   3.466   6.143  0.3494 -0.3433  3.4297
14860SOL    HW246575   1.934   3.568   6.039 -0.5167 -3.6128 -0.3544
14861SOL     OW46576   1.242   3.027   1.247 -0.2766 -0.4672  0.0732
14861SOL    HW146577   1.147   3.017   1.252 -0.3259 -1.2400 -1.6892
14861SOL    HW246578   1.274   2.943   1.215  0.7555  0.5451 -1.7189
14862SOL     OW46579   0.148   2.421   3.121  0.5267  0.5498  0.4790
14862SOL    HW146580   0.139   2.340   3.071 -1.4205  1.7437 -1.2714
14862SOL    HW246581   0.177   2.393   3.208  2.1181 -1.7818 -0.7176
14863SOL     OW46582   3.532   1.496   5.816 -1.1463 -0.0514 -0.3069
14863SOL    HW146583   3.559   1.426   5.757 -1.1523 -1.5035  1.3167
14863SOL    HW246584   3.613   1.526   5.858 -1.4741 -1.6146  1.5996
14864SOL     OW46585   5.309   7.469   8.431 -0.5957 -0.0771  0.4270
14864SOL    HW146586   5.308   7.531   8.504 -0.2717  0.1203  0.2656
14864SOL    HW246587   5.293   7.384   8.472  0.2613 -0.0581  0.8192
14865SOL     OW46588   0.702   5.122   2.884 -0.3632  0.3935  0.0031
14865SOL    HW146589   0.771   5.187   2.869  0.2298 -0.1581  0.2430
14865SOL    HW246590   0.627   5.154   2.834 -0.1549  1.3619  0.2912
14866SOL     OW46591   3.330   1.173   5.308  0.6013  0.4124  0.5509
14866SOL    HW146592   3.276   1.105   5.267 -0.0586  0.3063  1.5712
14866SOL    HW246593   3.415   1.131   5.321  0.9593  0.5835 -1.0780
14867SOL     OW46594   7.623   3.422   4.432 -0.0997  0.0924  0.0001
14867SOL    HW146595   7.624   3.476   4.511  1.8040  0.5137 -0.2595
14867SOL    HW246596   7.592   3.482   4.364 -1.1236 -0.0900  0.2908
14868SOL     OW46597   0.867   3.416   2.906  0.5944  0.4355  0.3074
14868SOL    HW146598   0.879   3.511   2.903 -0.2346  0.5677  0.7678
14868SOL    HW246599   0.945   3.384   2.951 -0.5384  1.2424  3.0609
14869SOL     OW46600   4.739   0.863   4.563 -0.6056 -0.3340 -0.4104
14869SOL    HW146601   4.756   0.862   4.469  0.6776  1.9050 -0.2769
14869SOL    HW246602   4.656   0.815   4.573  0.6933 -3.2659 -2.2676
14870SOL     OW46603   1.188   1.966   0.702  0.0177  0.9505  0.1348
14870SOL    HW146604   1.101   1.962   0.742  0.3294 -0.2892  0.7305
14870SOL    HW246605   1.198   2.058   0.676 -1.1144  1.2954  0.8416
14871SOL     OW46606   3.357   4.644   6.192 -0.2958  0.8545 -0.0006
14871SOL    HW146607   3.335   4.580   6.260 -1.3703  2.0032  0.7746
14871SOL    HW246608   3.391   4.720   6.241  1.0126  0.8878 -0.8993
14872SOL     OW46609   7.088   6.318   5.483 -0.4275 -0.4017 -0.0866
14872SOL    HW146610   7.089   6.223   5.478  1.7757 -0.4884  0.7844
14872SOL    HW246611   7.159   6.346   5.425 -0.6268  0.6686  0.1616
14873SOL     OW46612   2.855   8.053   8.614 -0.1178 -0.1106  0.3961
14873SOL    HW146613   2.857   8.145   8.585  0.6060 -0.3339 -0.2917
14873SOL    HW246614   2.785   8.014   8.561 -0.2358 -0.0219  0.4860
14874SOL     OW46615   7.378   4.809   5.447 -0.2956 -0.2527 -0.3540
14874SOL    HW146616   7.386   4.743   5.517  1.1356 -0.3851 -0.6159
14874SOL    HW246617   7.402   4.762   5.367  2.3188  0.9103 -0.3514
14875SOL     OW46618   0.311   2.484   5.209  0.1078 -0.0444 -0.0771
14875SOL    HW146619   0.370   2.540   5.159  0.2407 -0.2275 -0.1249
14875SOL    HW246620   0.299   2.531   5.292  1.7569 -0.8616  0.6645
14876SOL     OW46621   8.689   0.740   7.296  0.4450 -0.7042 -0.3142
14876SOL    HW146622   8.717   0.783   7.377  0.3464  0.1420 -0.7178
14876SOL    HW246623   8.598   0.765   7.285  0.4802 -0.7435 -0.7307
14877SOL     OW46624   5.780   0.337   0.727 -0.1767 -0.5038 -0.0165
14877SOL    HW146625   5.793   0.432   0.735  0.2880 -0.3895 -1.7159
14877SOL    HW246626   5.848   0.299   0.782  1.0836  0.1760 -1.0269
14878SOL     OW46627   7.881   1.038   4.599  0.1045  0.1094 -0.0574
14878SOL    HW146628   7.941   1.034   4.673  0.7278 -1.4925 -0.5974
14878SOL    HW246629   7.823   1.111   4.618  0.9730  0.4384  1.4442
14879SOL     OW46630   2.282   0.494   6.958 -0.5241  0.0556 -0.2722
14879SOL    HW146631   2.302   0.493   6.865  1.4813 -0.7574  0.1235
14879SOL    HW246632   2.274   0.587   6.979 -1.6616  0.2311 -1.3450
14880SOL     OW46633   5.565   6.602   5.275 -0.7093 -0.1912  0.4216
14880SOL    HW146634   5.641   6.620   5.219 -1.0718 -0.2851 -0.1055
14880SOL    HW246635   5.599   6.606   5.364 -0.3299  0.9718  0.2352
14881SOL     OW46636   0.610   7.393   2.552 -0.0724  0.0620 -0.0906
14881SOL    HW146637   0.537   7.449   2.524  0.2497  0.2108 -0.6475
14881SOL    HW246638   0.640   7.433   2.633 -0.3275  0.2579 -0.0890
14882SOL     OW46639   1.921   4.752   5.890 -0.0596 -0.2445  0.4332
14882SOL    HW146640   1.909   4.675   5.944  0.3972  1.1187  2.5949
14882SOL    HW246641   2.006   4.787   5.915  0.0087  0.6645 -0.9173
14883SOL     OW46642   4.034   8.218   6.244  0.1121  0.7805 -0.2861
14883SOL    HW146643   4.084   8.137   6.255 -0.0573  0.7103 -0.0136
14883SOL    HW246644   3.951   8.190   6.206 -0.5702  0.6102  1.2264
14884SOL     OW46645   2.252   4.804   4.620 -0.7366  0.2927  0.3837
14884SOL    HW146646   2.253   4.830   4.528 -2.0812  0.0879  0.2816
14884SOL    HW246647   2.336   4.832   4.655  0.1508 -0.3999 -1.1201
14885SOL     OW46648   0.765   4.379   8.550 -0.5803  0.3377  0.0650
14885SOL    HW146649   0.763   4.286   8.575  0.2845  0.2911  0.0076
14885SOL    HW246650   0.858   4.402   8.552 -0.7879  1.2046  0.0622
14886SOL     OW46651   8.184   1.205   5.936  0.7015 -0.5168 -0.1416
14886SOL    HW146652   8.235   1.141   5.984 -0.1055 -0.2833  1.0910
14886SOL    HW246653   8.232   1.287   5.946  0.8574 -0.5934 -0.2654
14887SOL     OW46654   8.148   7.302   1.913 -0.1958 -0.5983 -0.2259
14887SOL    HW146655   8.233   7.308   1.869 -0.3256 -0.3300 -0.4428
14887SOL    HW246656   8.167   7.321   2.005 -0.0045 -0.6549 -0.2525
14888SOL     OW46657   2.253   4.843   4.370  0.2189  0.4494 -0.2336
14888SOL    HW146658   2.163   4.859   4.341 -0.1991  1.2058  1.3838
14888SOL    HW246659   2.271   4.752   4.345 -0.7532  0.4895 -1.1484
14889SOL     OW46660   3.165   2.001   3.017  0.1921  0.2736  0.3005
14889SOL    HW146661   3.134   1.927   3.070  1.4444 -0.2246  0.3936
14889SOL    HW246662   3.244   2.031   3.063  1.2143 -0.0582 -1.1509
14890SOL     OW46663   4.117   8.663   8.135 -0.2763  0.1360  0.0457
14890SOL    HW146664   4.038   8.717   8.141  1.9943  3.6141  2.0025
14890SOL    HW246665   4.112   8.604   8.210 -1.9208 -1.2490 -1.0744
14891SOL     OW46666   2.979   5.199   5.967  0.4278 -0.3159 -0.2110
14891SOL    HW146667   2.949   5.111   5.942 -0.3159 -0.7798  2.0955
14891SOL    HW246668   3.073   5.190   5.978  0.5027 -0.5480 -0.9735
14892SOL     OW46669   5.587   2.758   4.876  0.1071  0.2403  0.1843
14892SOL    HW146670   5.550   2.714   4.799 -0.2954 -0.4742  0.7683
14892SOL    HW246671   5.641   2.691   4.918 -0.7185  0.1928  1.2287
14893SOL     OW46672   0.594   2.660   4.696 -0.0327 -0.2689  0.4492
14893SOL    HW146673   0.562   2.588   4.751 -0.3541  0.2842  0.9951
14893SOL    HW246674   0.635   2.721   4.758 -0.6034  0.4792  0.1017
14894SOL     OW46675   6.296   4.631   0.591 -0.0486 -0.0905  0.8057
14894SOL    HW146676   6.326   4.578   0.665  0.6240 -0.5102  0.2417
14894SOL    HW246677   6.279   4.717   0.628 -1.3647 -0.7278  1.7892
14895SOL     OW46678   0.180   4.424   0.029 -0.4762  0.4753  0.2765
14895SOL    HW146679   0.219   4.484  -0.034 -1.0071  1.1833  0.6041
14895SOL    HW246680   0.179   4.474   0.111  1.2587 -0.8202  1.1454
14896SOL     OW46681   7.501   5.026   7.135  0.5874 -0.5568 -0.3922
14896SOL    HW146682   7.412   5.003   7.161  0.3080  0.3714 -0.5002
14896SOL    HW246683   7.495   5.041   7.041  0.5902  0.6526 -0.2179
14897SOL     OW46684   8.382   1.010   2.445 -0.1275  0.6458  0.0782
14897SOL    HW146685   8.431   1.086   2.414 -0.5101  0.1519 -1.8828
14897SOL    HW246686   8.295   1.045   2.465  0.1221  0.9731  0.6208
14898SOL     OW46687   3.967   2.648   4.398  0.3585  0.2948  0.3400
14898SOL    HW146688   4.006   2.566   4.368 -0.6972  0.1238 -0.6451
14898SOL    HW246689   4.030   2.715   4.372  0.5307 -0.0750 -0.2241
14899SOL     OW46690   5.999   6.553   3.435  0.5145  0.6156  0.4207
14899SOL    HW146691   6.070   6.542   3.372 -2.4411  1.1283 -3.4033
14899SOL    HW246692   5.990   6.648   3.444  0.5402  0.5514  1.1812
14900SOL     OW46693   8.761   5.012   3.418  0.0675  0.3075 -0.0444
14900SOL    HW146694   8.757   4.999   3.513  0.3620 -0.5970 -0.1516
14900SOL    HW246695   8.847   5.051   3.403 -0.6004  1.9636  0.2167
14901SOL     OW46696   0.037   1.993   5.964  0.4544  0.1814  0.1738
14901SOL    HW146697   0.066   1.905   5.941  0.8258  0.1418  0.7748
14901SOL    HW246698   0.116   2.046   5.961  0.1351  0.6247 -0.7511
14902SOL     OW46699   6.945   6.998   8.224  0.6752 -0.3862 -0.4565
14902SOL    HW146700   6.982   7.039   8.302  1.0999 -1.4338 -0.1005
14902SOL    HW246701   6.851   7.000   8.238  0.7383 -0.3808 -0.0148
14903SOL     OW46702   1.128   6.559   8.268  0.4251  0.4729 -0.4289
14903SOL    HW146703   1.189   6.523   8.332 -0.0120 -0.6953 -0.6414
14903SOL    HW246704   1.130   6.654   8.284  0.9480  0.2877  0.7415
14904SOL     OW46705   7.497   4.405   1.992  0.1564  0.1596  0.0940
14904SOL    HW146706   7.466   4.414   1.902  0.7453 -0.2329 -0.1512
14904SOL    HW246707   7.559   4.332   1.990 -1.3297 -1.2104  1.2206
14905SOL     OW46708   2.756   4.227   2.688  0.2314 -0.2804 -0.5471
14905SOL    HW146709   2.837   4.185   2.717  0.5445  1.3646  1.1944
14905SOL    HW246710   2.774   4.254   2.598  0.1360 -3.3779 -1.5988
14906SOL     OW46711   6.674   8.273   4.694  0.2886 -0.1340  0.1753
14906SOL    HW146712   6.675   8.225   4.611 -0.2221  1.5980 -0.8900
14906SOL    HW246713   6.719   8.215   4.756 -1.5454 -2.5771 -0.6323
14907SOL     OW46714   3.939   4.874   2.529  0.5617  0.5586 -0.0217
14907SOL    HW146715   3.972   4.815   2.461  1.1803 -0.4621  1.1300
14907SOL    HW246716   3.864   4.827   2.566  2.1871 -0.4483  2.1813
14908SOL     OW46717   4.805   6.966   2.706 -0.2028 -0.5059  0.4802
14908SOL    HW146718   4.827   7.001   2.793  1.0229 -1.3706  0.5471
14908SOL    HW246719   4.775   7.042   2.656  1.5312  0.4962  0.8874
14909SOL     OW46720   8.012   6.348   0.444  0.1801 -0.6984  0.1904
14909SOL    HW146721   8.008   6.287   0.370 -0.2635 -1.2151  0.6373
14909SOL    HW246722   7.952   6.312   0.508 -0.2387  0.3195  0.3871
14910SOL     OW46723   0.763   1.984   7.232  0.6879 -0.1303  0.2088
14910SOL    HW146724   0.704   2.044   7.187 -0.8029 -0.9411  1.0244
14910SOL    HW246725   0.845   2.034   7.242  0.2603  0.8990 -1.2052
14911SOL     OW46726   8.505   7.381   6.950 -0.3442  0.2778 -0.6577
14911SOL    HW146727   8.556   7.426   6.883 -1.3650  1.1332 -0.8819
14911SOL    HW246728   8.565   7.315   6.985 -0.0001 -0.7330 -2.9329
14912SOL     OW46729   1.160   4.682   2.672  0.1722 -0.4217 -0.1517
14912SOL    HW146730   1.240   4.714   2.713 -0.6724  0.3334  0.9883
14912SOL    HW246731   1.116   4.632   2.741 -0.7697 -0.0438 -0.4599
14913SOL     OW46732   1.594   7.983   7.345 -0.2680 -0.4729  0.1346
14913SOL    HW146733   1.657   7.941   7.404  1.2140  0.1233 -0.9588
14913SOL    HW246734   1.616   7.948   7.259 -1.6959 -0.5177 -0.2329
14914SOL     OW46735   3.922   3.077   3.071  0.0785  0.2692  0.5386
14914SOL    HW146736   3.962   3.020   3.136 -0.6571 -1.8254 -0.7252
14914SOL    HW246737   3.981   3.152   3.063  1.8358 -0.9914  1.2853
14915SOL     OW46738   5.017   3.731   8.412  0.0752  0.0778 -0.5336
14915SOL    HW146739   5.068   3.808   8.387  0.5975 -0.2869 -0.6064
14915SOL    HW246740   5.070   3.687   8.478 -0.6086  0.2269  0.1248
14916SOL     OW46741   2.315   1.767   6.380 -0.1016 -0.2575 -0.3907
14916SOL    HW146742   2.233   1.769   6.331 -1.2627 -0.9385  1.4167
14916SOL    HW246743   2.347   1.858   6.377 -0.1152 -0.2910 -2.3640
14917SOL     OW46744   7.233   1.513   3.594  0.1378  0.1748 -0.3038
14917SOL    HW146745   7.274   1.435   3.555  1.6550  0.0780  1.4101
14917SOL    HW246746   7.187   1.480   3.671 -1.0178  0.6901 -0.7473
14918SOL     OW46747   3.281   7.889   1.926  0.5072  0.1909 -0.2048
14918SOL    HW146748   3.231   7.811   1.900 -0.8224  1.0322 -0.2882
14918SOL    HW246749   3.296   7.936   1.844 -1.4149  1.5418  0.1528
14919SOL     OW46750   8.597   8.586   3.757  0.5191  0.6636 -0.0779
14919SOL    HW146751   8.548   8.550   3.683  1.4253  0.4892 -0.6044
14919SOL    HW246752   8.659   8.646   3.717  1.6999 -0.1814  0.4349
14920SOL     OW46753   1.316   2.472   3.889  0.1195  0.5879  0.7243
14920SOL    HW146754   1.310   2.564   3.916  1.7491  2.3062 -3.8182
14920SOL    HW246755   1.226   2.441   3.892 -0.3809  1.9999  3.1804
14921SOL     OW46756   2.588   7.096   2.265 -0.5577 -0.1471 -0.3649
14921SOL    HW146757   2.678   7.122   2.284  0.0426 -0.6952 -2.1969
14921SOL    HW246758   2.537   7.126   2.340  0.7839  2.2466 -0.3389
14922SOL     OW46759   4.779   0.442   1.158 -0.0837 -0.1048  0.2180
14922SOL    HW146760   4.770   0.517   1.217  1.6198  0.9368 -0.7574
14922SOL    HW246761   4.760   0.478   1.071  2.8230 -0.1725 -0.5602
14923SOL     OW46762   7.165   4.670   7.528  0.0976 -0.5615 -0.0128
14923SOL    HW146763   7.163   4.673   7.624 -2.9291 -2.0783  0.1045
14923SOL    HW246764   7.121   4.751   7.501  0.9678 -0.1256 -0.1483
14924SOL     OW46765   8.580   0.969   6.693  0.1349  0.5818  0.3013
14924SOL    HW146766   8.487   0.950   6.695  0.0963  0.8007  1.0506
14924SOL    HW246767   8.610   0.951   6.783  0.8974  0.0900 -0.0414
14925SOL     OW46768   2.030   7.578   4.075  0.6192 -0.5239 -0.1093
14925SOL    HW146769   2.058   7.493   4.109  1.1553 -1.7922 -3.3833
14925SOL    HW246770   1.934   7.572   4.073  0.5570 -0.3378  1.2034
14926SOL     OW46771   6.496   7.714   0.187 -1.0286 -0.2831  0.1527
14926SOL    HW146772   6.522   7.728   0.096 -0.4366  0.7952  0.4709
14926SOL    HW246773   6.578   7.693   0.233 -1.5387 -2.4540  0.1711
14927SOL     OW46774   5.159   0.587   1.339  0.3815  0.1103  0.2168
14927SOL    HW146775   5.255   0.586   1.342  0.3981  1.1621  0.8524
14927SOL    HW246776   5.138   0.646   1.267  0.2053 -0.4220 -0.1695
14928SOL     OW46777   0.386   3.227   5.433 -0.2590 -0.3263 -0.7429
14928SOL    HW146778   0.294   3.252   5.423 -0.6195 -1.8619 -1.4576
14928SOL    HW246779   0.425   3.242   5.346  0.1468  0.1936 -0.4786
14929SOL     OW46780   5.258   5.088   3.258  0.0926 -0.2094  0.3517
14929SOL    HW146781   5.238   5.118   3.169  1.6331  0.2517  0.1263
14929SOL    HW246782   5.186   5.120   3.311  0.9371  2.7816 -0.1191
14930SOL     OW46783   0.714   2.036   2.676  0.5813 -0.2503  0.4836
14930SOL    HW146784   0.666   2.071   2.751 -1.3791 -2.0840  0.1710
14930SOL    HW246785   0.671   2.074   2.600 -0.0094 -1.4339  0.2120
14931SOL     OW46786   6.452   8.410   4.008  0.0313 -0.3252 -0.1690
14931SOL    HW146787   6.367   8.452   4.011  0.3331  0.2767  0.4180
14931SOL    HW246788   6.511   8.476   3.972  0.2822 -0.6706 -0.4023
14932SOL     OW46789   7.897   1.818   2.169  0.4185  0.3926  0.0174
14932SOL    HW146790   7.831   1.769   2.217  1.0190  0.9642  1.5030
14932SOL    HW246791   7.873   1.910   2.183  0.9385  0.5769 -0.2727
14933SOL     OW46792   0.385   1.167   8.129  0.0465  0.5345  0.3727
14933SOL    HW146793   0.307   1.126   8.092  2.3210 -2.1138 -1.9420
14933SOL    HW246794   0.398   1.246   8.077  0.2272 -0.3605 -1.0024
14934SOL     OW46795   6.274   7.370   3.085 -0.3070 -0.5200  0.4421
14934SOL    HW146796   6.303   7.459   3.108 -1.0702  0.1166 -0.9336
14934SOL    HW246797   6.179   7.373   3.094 -0.4454 -0.8318 -0.7879
14935SOL     OW46798   8.254   6.486   0.378 -0.6317 -0.1544 -0.8127
14935SOL    HW146799   8.160   6.473   0.391 -0.4170  0.0566  1.2918
14935SOL    HW246800   8.291   6.397   0.376 -0.7987 -0.2203 -0.9850
14936SOL     OW46801   1.469   0.384   2.024 -0.1541 -0.1161  0.3799
14936SOL    HW146802   1.429   0.335   1.953  0.9649  1.8764 -1.7963
14936SOL    HW246803   1.451   0.476   2.003  0.0881  0.5631  2.7980
14937SOL     OW46804   1.187   0.541   3.771  0.3682 -0.8537 -0.7755
14937SOL    HW146805   1.227   0.618   3.810 -2.3322  0.7603 -0.9320
14937SOL    HW246806   1.201   0.552   3.677  1.2913 -1.3687 -0.7049
14938SOL     OW46807   8.030   5.835   7.182  0.0523  0.1149  0.4881
14938SOL    HW146808   8.062   5.864   7.268 -2.1673  1.4482  0.9538
14938SOL    HW246809   7.965   5.768   7.202  1.1519 -1.2196 -0.3113
14939SOL     OW46810   2.854   6.626   3.455 -0.2079  0.6648  0.2811
14939SOL    HW146811   2.763   6.633   3.483  0.0660  5.3836  0.7033
14939SOL    HW246812   2.905   6.666   3.525  1.6347  2.5186 -1.9484
14940SOL     OW46813   1.646   0.550   8.007 -0.0315  1.0767  0.1302
14940SOL    HW146814   1.732   0.508   8.014 -0.7213 -0.4086  0.1361
14940SOL    HW246815   1.655   0.610   7.933  1.2404  1.5371  0.6355
14941SOL     OW46816   2.558   8.771   6.482  0.6213 -0.0209  0.0350
14941SOL    HW146817   2.537   8.864   6.490  1.6844  0.3820 -1.4806
14941SOL    HW246818   2.654   8.767   6.484  0.5869 -1.1411  0.5116
14942SOL     OW46819   8.515   1.395   4.934  0.5534 -0.1905  0.5513
14942SOL    HW146820   8.487   1.406   5.025 -0.0875  0.0558  0.3276
14942SOL    HW246821   8.608   1.375   4.941  0.8761  1.3649  1.1796
14943SOL     OW46822   7.298   3.652   8.167 -0.3292  0.3057 -0.2477
14943SOL    HW146823   7.376   3.688   8.210 -0.7810 -0.0052  0.8740
14943SOL    HW246824   7.251   3.729   8.134  0.1153  0.5426 -0.3267
14944SOL     OW46825   6.660   5.209   5.572  0.7527  0.7249 -0.5511
14944SOL    HW146826   6.662   5.304   5.581 -0.1231  0.6510  0.5483
14944SOL    HW246827   6.575   5.191   5.531  0.2364  0.3353  0.6367
14945SOL     OW46828   0.649   7.779   2.682 -0.0011  0.6887 -0.5581
14945SOL    HW146829   0.592   7.855   2.689  1.1790  1.5065  0.7224
14945SOL    HW246830   0.633   7.730   2.762 -2.3191 -1.6382 -2.2896
14946SOL     OW46831   3.960   3.700   1.427  0.4743  0.2504  0.0942
14946SOL    HW146832   3.980   3.630   1.364 -1.4206 -2.1145  1.9213
14946SOL    HW246833   3.865   3.710   1.421  0.6030  2.0220  0.5824
14947SOL     OW46834   0.161   2.945   8.430  0.2983 -0.0194  0.8402
14947SOL    HW146835   0.206   2.949   8.514 -0.5025  0.6849  1.2582
14947SOL    HW246836   0.080   2.995   8.444 -0.7074 -1.4000  0.1876
14948SOL     OW46837   7.897   7.229   8.200 -0.4337  0.1862  0.2685
14948SOL    HW146838   7.890   7.241   8.295 -0.5390  1.2327  0.1366
14948SOL    HW246839   7.914   7.316   8.166 -0.2282 -0.2074 -0.6711
14949SOL     OW46840   3.519   0.818   6.434 -0.0958  0.0598  0.1309
14949SOL    HW146841   3.494   0.778   6.517 -0.4947  0.4342  0.1988
14949SOL    HW246842   3.585   0.759   6.397  2.8414  1.6772  2.3898
14950SOL     OW46843   3.592   5.511   6.041  0.0044  0.1073  0.0062
14950SOL    HW146844   3.504   5.533   6.070  0.0312  0.7200 -0.3560
14950SOL    HW246845   3.616   5.433   6.092  0.9320  2.3677  3.3385
14951SOL     OW46846   1.863   5.169   5.392 -0.4041 -0.1503  0.0261
14951SOL    HW146847   1.824   5.250   5.358 -0.9383  0.5250  2.1067
14951SOL    HW246848   1.807   5.099   5.358 -0.7305  0.4422 -0.6999
14952SOL     OW46849   7.787   6.033   0.407 -0.6559  0.0071 -0.1676
14952SOL    HW146850   7.882   6.032   0.393 -0.6619 -1.7352 -0.2878
14952SOL    HW246851   7.751   6.007   0.322 -1.1357 -1.1869  0.3840
14953SOL     OW46852   5.795   3.246   7.343 -0.1632  0.0875 -0.0061
14953SOL    HW146853   5.880   3.207   7.323  0.6814  1.2140  1.2046
14953SOL    HW246854   5.764   3.201   7.421  0.2486  0.9687  0.6847
14954SOL     OW46855   4.453   5.989   4.066 -0.1067 -0.0514 -0.1430
14954SOL    HW146856   4.463   5.926   4.137  0.3340  0.3419  0.1443
14954SOL    HW246857   4.359   5.993   4.050 -0.2112 -0.0877  0.4649
14955SOL     OW46858   2.357   3.677   4.007  0.6826  0.0083 -0.0864
14955SOL    HW146859   2.401   3.758   3.981 -0.3796  0.1399 -1.6458
14955SOL    HW246860   2.337   3.633   3.924 -2.5805  0.2487  0.4282
14956SOL     OW46861   7.932   4.456   2.544 -0.6232  0.6613 -0.4191
14956SOL    HW146862   7.931   4.491   2.633 -0.4071  0.8317 -0.4858
14956SOL    HW246863   7.839   4.454   2.518 -0.6871  0.5908 -0.1838
14957SOL     OW46864   7.006   0.196   7.310 -0.2260  0.8444 -0.2702
14957SOL    HW146865   7.050   0.125   7.358  1.6436  1.8130 -0.4307
14957SOL    HW246866   6.999   0.267   7.374 -0.5001  1.0953 -0.5754
14958SOL     OW46867   7.178   1.098   4.083 -0.3533 -0.0822  0.6852
14958SOL    HW146868   7.192   1.069   4.173 -1.3699  0.0705  0.9072
14958SOL    HW246869   7.220   1.031   4.029 -3.5808 -2.7276  1.1166
14959SOL     OW46870   5.470   4.811   2.969 -0.2503  0.1473  0.4416
14959SOL    HW146871   5.415   4.883   3.000  0.9794  1.2729  0.1042
14959SOL    HW246872   5.532   4.852   2.909  0.8474 -1.1085  0.6635
14960SOL     OW46873   1.055   1.105   8.553 -0.6489  0.7264  0.1837
14960SOL    HW146874   1.106   1.130   8.630 -1.1999 -0.4124  0.9502
14960SOL    HW246875   0.967   1.139   8.571 -0.6358  0.9784 -0.2222
14961SOL     OW46876   3.918   7.846   3.587  0.4061 -0.1823 -0.0133
14961SOL    HW146877   3.878   7.896   3.658  0.0815 -0.1726 -0.2012
14961SOL    HW246878   3.875   7.878   3.508  0.8877 -0.0675 -0.2380
14962SOL     OW46879   5.289   6.824   7.808 -0.0481  0.1189 -0.1641
14962SOL    HW146880   5.355   6.874   7.762  0.0753  0.3793  0.2864
14962SOL    HW246881   5.285   6.864   7.895 -0.6573 -0.0157 -0.1240
14963SOL     OW46882   0.359   5.752   2.724  0.1928  0.3284 -1.4926
14963SOL    HW146883   0.343   5.720   2.812 -0.4502  1.1475 -1.2965
14963SOL    HW246884   0.399   5.678   2.678  2.4114  0.5034  0.0193
14964SOL     OW46885   4.073   0.243   5.591  0.5444 -0.0096 -0.0138
14964SOL    HW146886   4.008   0.188   5.548  0.8440 -3.0180  2.9009
14964SOL    HW246887   4.148   0.242   5.531 -0.6770  0.1372 -1.5955
14965SOL     OW46888   5.029   6.486   5.498 -0.1880  0.4036 -0.1760
14965SOL    HW146889   5.000   6.435   5.422 -1.9591  1.8701 -0.5271
14965SOL    HW246890   5.054   6.571   5.461 -0.4576  0.9158  0.8164
14966SOL     OW46891   2.439   7.441   3.212 -0.3751 -0.4521  0.3429
14966SOL    HW146892   2.494   7.508   3.170  0.0278 -0.5958  0.6429
14966SOL    HW246893   2.486   7.418   3.292 -0.3266 -1.3752  0.0525
14967SOL     OW46894   8.249   7.494   5.433  0.1363  0.0165 -0.0771
14967SOL    HW146895   8.262   7.583   5.399  1.7453 -0.6857 -1.4181
14967SOL    HW246896   8.328   7.447   5.408 -0.7080 -1.8318  0.5636
14968SOL     OW46897   0.216   6.609   5.120  0.2572  0.8683  0.5928
14968SOL    HW146898   0.256   6.602   5.033 -0.9551  0.8846  0.0154
14968SOL    HW246899   0.289   6.597   5.181  1.1031  0.7147 -0.4248
14969SOL     OW46900   6.182   5.478   5.387  0.2707 -0.1720  0.6879
14969SOL    HW146901   6.125   5.516   5.321  1.3523  1.6232  0.7409
14969SOL    HW246902   6.124   5.422   5.439 -1.0844  0.3261 -0.2347
14970SOL     OW46903   4.415   7.881   8.317 -0.6140 -0.9373 -0.5015
14970SOL    HW146904   4.437   7.945   8.249 -1.7376  1.3902  1.1843
14970SOL    HW246905   4.337   7.837   8.285 -1.9705  1.1273 -0.1949
14971SOL     OW46906   1.073   6.645   1.883 -0.0887 -0.6716 -0.1450
14971SOL    HW146907   1.142   6.629   1.819 -0.4767  2.8695 -1.6719
14971SOL    HW246908   1.092   6.732   1.918 -2.7735 -0.3390  0.7076
14972SOL     OW46909   8.278   8.669   8.574  0.2155  0.3478 -0.0940
14972SOL    HW146910   8.319   8.743   8.620  1.0326  0.8047 -1.4790
14972SOL    HW246911   8.284   8.596   8.636  0.6181  1.1116  0.7915
14973SOL     OW46912   4.423   7.936   0.620  0.1352  0.2826  0.0677
14973SOL    HW146913   4.453   8.014   0.667  2.0812  0.7195 -1.7334
14973SOL    HW246914   4.428   7.961   0.528 -1.6595 -1.1793 -0.4776
14974SOL     OW46915   1.261   6.590   7.986  0.2896 -0.3951 -0.0764
14974SOL    HW146916   1.238   6.537   8.063 -1.1140  0.6858  0.2891
14974SOL    HW246917   1.201   6.561   7.918  1.9933 -1.8435 -1.0407
14975SOL     OW46918   2.447   8.532   5.707  0.1394 -0.2371 -0.4810
14975SOL    HW146919   2.423   8.599   5.771 -0.1987 -1.1338  0.3659
14975SOL    HW246920   2.367   8.516   5.658 -0.2187 -1.1202  0.3654
14976SOL     OW46921   7.578   6.236   5.127  0.2041  0.4993  0.7418
14976SOL    HW146922   7.635   6.160   5.116 -0.0017  0.1451  1.9343
14976SOL    HW246923   7.605   6.275   5.210 -0.8651  0.6883  1.0239
14977SOL     OW46924   1.199   1.342   2.952 -0.3933 -0.0236 -0.2391
14977SOL    HW146925   1.269   1.403   2.972 -0.1225 -0.0963 -0.9225
14977SOL    HW246926   1.229   1.295   2.874 -0.6989 -0.8650  0.1378
14978SOL     OW46927   2.150   3.455   5.647 -0.3401 -0.3746  0.5404
14978SOL    HW146928   2.102   3.397   5.588 -0.2407  0.4940 -0.4243
14978SOL    HW246929   2.188   3.396   5.713 -0.6206 -1.3440 -0.1384
14979SOL     OW46930   8.870   3.006   6.411 -0.3875  0.1314  0.5890
14979SOL    HW146931   8.919   2.924   6.409 -0.1836  0.2463  0.8581
14979SOL    HW246932   8.922   3.064   6.467  0.1979  0.9036 -0.7077
14980SOL     OW46933   6.053   2.932   7.307 -0.2165 -0.0691  0.5244
14980SOL    HW146934   6.114   2.896   7.242  0.4429  1.0370  0.5083
14980SOL    HW246935   6.085   3.021   7.323 -1.5058  0.3432  0.9339
14981SOL     OW46936   5.681   2.830   5.739 -0.1211 -0.1868  0.0737
14981SOL    HW146937   5.661   2.805   5.829  0.0537 -1.6956 -0.2863
14981SOL    HW246938   5.658   2.923   5.735  0.9003  0.2098  1.9757
14982SOL     OW46939   2.244   8.095   7.055 -0.1058  0.1359 -0.0235
14982SOL    HW146940   2.324   8.103   7.002 -0.1616  0.9151  0.0021
14982SOL    HW246941   2.230   8.001   7.061  1.2726 -0.0585  0.6614
14983SOL     OW46942   8.584   6.071   3.954 -0.6006 -0.2663 -0.2071
14983SOL    HW146943   8.492   6.058   3.976  0.0430 -0.7767  2.5459
14983SOL    HW246944   8.618   5.983   3.939 -0.8736  0.0269 -3.0322
14984SOL     OW46945   0.642   1.184   2.806 -0.1223  0.3121  0.0214
14984SOL    HW146946   0.702   1.240   2.854 -0.5975 -0.2758  1.3486
14984SOL    HW246947   0.603   1.127   2.872 -1.7609  0.3281 -0.8531
14985SOL     OW46948   4.888   3.765   1.794 -0.0145  0.2040  0.3852
14985SOL    HW146949   4.941   3.838   1.826 -2.7330  1.7637  1.6317
14985SOL    HW246950   4.846   3.798   1.715  1.4698 -1.3553 -1.1637
14986SOL     OW46951   5.805   3.570   3.209 -0.3099 -0.3835  0.0431
14986SOL    HW146952   5.742   3.554   3.280  0.2999 -0.8623  0.4864
14986SOL    HW246953   5.796   3.493   3.153  0.3182 -0.7587  0.4445
14987SOL     OW46954   2.765   2.311   5.557 -0.0964 -0.4299  0.5612
14987SOL    HW146955   2.733   2.223   5.575  0.7193 -0.5570  1.4716
14987SOL    HW246956   2.739   2.328   5.467 -0.0381 -1.7086  0.2831
14988SOL     OW46957   4.521   2.433   8.165 -0.4994  0.5928  0.2862
14988SOL    HW146958   4.559   2.486   8.095 -0.3782  2.4888  1.7028
14988SOL    HW246959   4.489   2.497   8.229  2.1804 -0.9503  3.4798
14989SOL     OW46960   0.809   8.627   3.348  0.0380 -0.6232  0.0322
14989SOL    HW146961   0.741   8.576   3.394 -0.1223  0.1042  0.6270
14989SOL    HW246962   0.766   8.655   3.267 -0.1573 -0.7112  0.1019
14990SOL     OW46963   0.547   6.341   1.644  0.4319  0.0459  0.0191
14990SOL    HW146964   0.603   6.415   1.667  0.2751  0.7590 -1.7590
14990SOL    HW246965   0.462   6.380   1.625  0.0650 -0.7130  0.0778
14991SOL     OW46966   6.796   7.150   7.225  0.2784  0.3333 -0.2698
14991SOL    HW146967   6.805   7.056   7.245  0.8232  0.3601 -0.3593
14991SOL    HW246968   6.879   7.188   7.254  0.4215  0.6401 -1.0616
14992SOL     OW46969   0.471   2.967   8.891  0.4826  0.2015  0.1092
14992SOL    HW146970   0.560   3.000   8.891  1.9584 -3.2925  0.4583
14992SOL    HW246971   0.471   2.896   8.955 -2.4101 -0.2911 -0.2517
14993SOL     OW46972   0.216   8.264   0.609 -0.3689  0.2296  0.6328
14993SOL    HW146973   0.166   8.341   0.581 -0.4048 -0.0806 -0.1794
14993SOL    HW246974   0.159   8.190   0.589  0.0675 -0.0743  0.5085
14994SOL     OW46975   3.585   6.139   7.412 -0.2905 -0.3215  0.3992
14994SOL    HW146976   3.571   6.178   7.326  0.5498 -2.4279 -0.7688
14994SOL    HW246977   3.680   6.131   7.419 -0.3687 -0.4620  1.3924
14995SOL     OW46978   2.366   5.179   5.974  0.2652 -0.0919 -0.1683
14995SOL    HW146979   2.352   5.150   5.884 -0.6538 -0.5070  0.0954
14995SOL    HW246980   2.298   5.245   5.988  1.7745  1.5887 -0.4706
14996SOL     OW46981   0.970   0.166   7.080 -0.2692  0.1682 -0.3096
14996SOL    HW146982   1.048   0.117   7.054 -0.1422 -0.6165  1.4391
14996SOL    HW246983   0.967   0.240   7.019  1.1926 -0.4126 -1.1326
14997SOL     OW46984   5.184   4.061   1.042 -0.1081 -0.2956  0.0257
14997SOL    HW146985   5.158   4.125   0.976 -0.6902 -1.3918 -0.8497
14997SOL    HW246986   5.279   4.058   1.037 -0.2023 -1.8127 -2.2400
14998SOL     OW46987   7.379   8.653   6.197 -0.2639 -0.4145  0.5038
14998SOL    HW146988   7.425   8.583   6.244  1.8031  1.5104  1.5467
14998SOL    HW246989   7.364   8.720   6.263 -1.9908  0.2876 -0.5281
14999SOL     OW46990   2.207   2.319   6.487  0.5073  0.6678  0.0327
14999SOL    HW146991   2.216   2.325   6.582 -1.4939  1.3951  0.2239
14999SOL    HW246992   2.206   2.410   6.457 -1.0719  0.5333 -0.4107
15000SOL     OW46993   2.856   5.939   3.549 -0.2768 -0.4892 -0.3281
15000SOL    HW146994   2.876   6.025   3.587 -0.1180 -1.4020  1.8361
15000SOL    HW246995   2.865   5.952   3.455  2.6866  1.1715  0.0421
15001SOL     OW46996   4.323   4.705   2.564 -0.1402  0.2578  0.0267
15001SOL    HW146997   4.262   4.750   2.623  0.3883 -0.6282  1.2895
15001SOL    HW246998   4.272   4.689   2.485 -1.0744  0.8807  0.4782
15002SOL     OW46999   6.052   2.274   3.937 -0.4935  0.6240  0.2217
15002SOL    HW147000   6.095   2.200   3.979 -0.4246 -0.6319 -1.9299
15002SOL    HW247001   6.123   2.329   3.903 -0.5582  0.8664  0.4732
15003SOL     OW47002   6.265   8.775   2.848  0.0113 -0.4178  0.1639
15003SOL    HW147003   6.175   8.787   2.878  0.4113 -0.5259  1.4793
15003SOL    HW247004   6.291   8.691   2.886  0.4009 -0.7814 -0.8895
15004SOL     OW47005   7.834   6.065   1.829 -0.2509  0.1433  0.5147
15004SOL    HW147006   7.747   6.061   1.790 -1.1027  1.2391  2.1997
15004SOL    HW247007   7.819   6.095   1.918  1.7398 -0.9818  1.2836
15005SOL     OW47008   1.885   3.642   6.806 -0.3457 -0.1491  0.2782
15005SOL    HW147009   1.937   3.596   6.740  1.8345  2.5770 -0.1023
15005SOL    HW247010   1.909   3.602   6.889  1.0863 -0.1083 -0.0930
15006SOL     OW47011   7.602   5.696   3.765  0.2632 -0.1656  0.5196
15006SOL    HW147012   7.652   5.626   3.807  1.7291  1.0514  0.9204
15006SOL    HW247013   7.523   5.705   3.817  0.0279 -1.5263  0.4330
15007SOL     OW47014   4.230   4.505   5.268 -0.4625  0.3563  0.4384
15007SOL    HW147015   4.154   4.480   5.320 -0.1988 -0.2510  0.5465
15007SOL    HW247016   4.300   4.518   5.332 -0.4202  0.6970  0.3233
15008SOL     OW47017   3.283   7.756   0.879  0.2813 -0.2973 -0.2149
15008SOL    HW147018   3.305   7.829   0.821  2.1335 -1.2744 -0.8090
15008SOL    HW247019   3.329   7.777   0.961 -1.3960  0.5021  0.5833
15009SOL     OW47020   4.077   0.740   4.793 -0.4182 -0.1610 -0.4003
15009SOL    HW147021   4.141   0.678   4.828 -2.2407 -1.6025  0.5495
15009SOL    HW247022   4.090   0.736   4.698  2.1763  1.1035 -0.2002
15010SOL     OW47023   0.597   3.744   5.446 -0.1865 -0.2440 -0.3351
15010SOL    HW147024   0.557   3.761   5.531 -0.4821 -1.2328 -0.2685
15010SOL    HW247025   0.526   3.755   5.382 -0.0033  0.3324 -0.4503
15011SOL     OW47026   7.121   0.795   8.128 -0.7302 -0.6956  0.1755
15011SOL    HW147027   7.097   0.750   8.047 -2.1026 -0.7513  0.5926
15011SOL    HW247028   7.040   0.833   8.160  0.1385  0.9819  0.5280
15012SOL     OW47029   3.197   1.777   5.677  0.4417 -0.2130  0.1896
15012SOL    HW147030   3.133   1.777   5.748 -0.3126  0.1558 -0.4699
15012SOL    HW247031   3.219   1.685   5.665 -0.7163 -0.4635 -0.2085
15013SOL     OW47032   5.840   1.908   3.120 -0.4951 -0.1417 -0.0209
15013SOL    HW147033   5.844   1.924   3.214 -0.2007  0.7379 -0.1715
15013SOL    HW247034   5.754   1.869   3.106 -1.0791  0.9376  0.4516
15014SOL     OW47035   0.640   3.091   7.108 -0.4030  0.2057 -0.1542
15014SOL    HW147036   0.661   3.064   7.019  0.4081 -4.0269  1.1212
15014SOL    HW247037   0.574   3.028   7.137  0.3203  0.6210  2.6377
15015SOL     OW47038   4.361   2.045   4.149 -0.4782 -0.0231  0.9069
15015SOL    HW147039   4.319   1.966   4.115  0.0452 -0.0159  0.2193
15015SOL    HW247040   4.317   2.117   4.105 -1.0716  0.0921  1.6600
15016SOL     OW47041   4.372   3.131   0.830 -0.2239 -0.0865 -0.6558
15016SOL    HW147042   4.410   3.149   0.916 -0.4908 -0.3950 -0.4682
15016SOL    HW247043   4.447   3.127   0.771  0.0765 -0.9968 -0.2336
15017SOL     OW47044   0.093   3.136   6.623  0.1836  0.2472  0.3070
15017SOL    HW147045   0.003   3.167   6.638 -0.9322 -2.8937  0.9747
15017SOL    HW247046   0.136   3.209   6.579 -3.2942  1.1808 -2.0176
15018SOL     OW47047   5.004   8.129   5.493  0.5317  0.1300 -0.1762
15018SOL    HW147048   5.032   8.163   5.578 -0.1308 -2.2419  1.0952
15018SOL    HW247049   5.027   8.198   5.431  0.2921  2.3348  2.0019
15019SOL     OW47050   7.809   6.034   2.769 -0.3834  0.2313  0.1328
15019SOL    HW147051   7.882   5.975   2.789 -0.5138  0.3273  0.9413
15019SOL    HW247052   7.814   6.102   2.836 -0.7959  0.6235 -0.2319
15020SOL     OW47053   8.709   5.314   2.982  0.1425  0.0710 -0.4746
15020SOL    HW147054   8.794   5.278   2.956 -0.1059 -0.6695 -0.2794
15020SOL    HW247055   8.694   5.280   3.070  0.3486  1.4632  0.1303
15021SOL     OW47056   4.388   0.266   1.101  0.1619 -0.2424 -0.2202
15021SOL    HW147057   4.446   0.330   1.144  2.6261 -1.6423 -1.2490
15021SOL    HW247058   4.423   0.259   1.012 -0.9517 -1.9507 -0.5555
15022SOL     OW47059   0.786   0.976   4.139  0.1312  0.7672 -0.3208
15022SOL    HW147060   0.860   0.936   4.183  0.9518  2.9112  0.3727
15022SOL    HW247061   0.767   1.055   4.189 -1.8858  0.9041 -1.1695
15023SOL     OW47062   1.708   1.505   7.293 -0.1652 -0.5424  0.7050
15023SOL    HW147063   1.663   1.530   7.374 -1.2577 -3.8247  1.2841
15023SOL    HW247064   1.725   1.588   7.248 -0.9000  1.2914  3.5539
15024SOL     OW47065   0.960   3.897   3.458 -0.0233 -0.2988  0.0526
15024SOL    HW147066   0.932   3.806   3.448  0.2612 -0.3499 -0.3139
15024SOL    HW247067   1.055   3.892   3.467  0.2806  0.1059 -2.3079
15025SOL     OW47068   2.030   4.608   7.176  0.6736  0.2473  0.2480
15025SOL    HW147069   2.000   4.697   7.192  0.1067  0.2152 -0.5911
15025SOL    HW247070   1.998   4.587   7.088 -1.5317 -1.7597  1.4249
15026SOL     OW47071   5.886   6.555   7.963  0.3407 -0.1634  0.2663
15026SOL    HW147072   5.936   6.486   8.007 -3.5711 -1.9740  2.4137
15026SOL    HW247073   5.827   6.508   7.904 -1.8927  1.3526  1.1770
15027SOL     OW47074   6.371   4.859   7.029 -0.0354 -0.0673 -0.1693
15027SOL    HW147075   6.372   4.945   6.986 -0.3424 -0.8646 -1.8679
15027SOL    HW247076   6.308   4.869   7.101 -1.1489  0.7623 -1.2038
15028SOL     OW47077   3.198   0.584   4.481  0.1797  0.0423  0.3052
15028SOL    HW147078   3.120   0.568   4.428 -0.2535 -1.2468  1.2836
15028SOL    HW247079   3.265   0.612   4.418 -1.0843  1.2983 -0.5361
15029SOL     OW47080   7.893   8.637   6.304 -0.0082 -0.3268  0.1213
15029SOL    HW147081   7.960   8.575   6.277 -1.0353 -1.6000  0.4031
15029SOL    HW247082   7.871   8.611   6.393 -0.7050  0.2260  0.1176
15030SOL     OW47083   5.960   4.015   7.826  0.1128 -0.0183 -0.1962
15030SOL    HW147084   5.963   4.001   7.731  0.6082  0.3512 -0.2418
15030SOL    HW247085   6.016   3.947   7.863 -0.1236 -0.1965 -0.1578
15031SOL     OW47086   8.386   3.095   5.912  0.2440  0.1967 -0.0220
15031SOL    HW147087   8.473   3.109   5.875  0.8479 -0.3232  1.1417
15031SOL    HW247088   8.327   3.135   5.849  1.2623 -0.1242 -1.2263
15032SOL     OW47089   3.910   5.325   7.844 -0.0469  0.3090 -0.2290
15032SOL    HW147090   3.956   5.255   7.889 -0.1351  0.0205 -0.5745
15032SOL    HW247091   3.942   5.320   7.754  0.8796  1.5252  0.0165
15033SOL     OW47092   3.372   5.929   5.225 -0.3351 -0.4115  0.1588
15033SOL    HW147093   3.280   5.905   5.229 -0.3367 -0.6011 -0.7226
15033SOL    HW247094   3.397   5.914   5.134  0.5473 -0.2891  0.3651
15034SOL     OW47095   7.297   0.205   7.835  0.0002  0.2091 -0.1806
15034SOL    HW147096   7.371   0.185   7.892 -0.2209 -0.9684 -0.2816
15034SOL    HW247097   7.321   0.167   7.750 -0.4754  0.3115 -0.3625
15035SOL     OW47098   4.481   1.449   7.670 -0.0597  0.4143 -0.4734
15035SOL    HW147099   4.397   1.404   7.681  0.6421 -0.6193  1.0627
15035SOL    HW247100   4.513   1.420   7.585 -0.5316 -0.4245 -0.3730
15036SOL     OW47101   6.349   4.797   3.856 -0.1841  0.2294 -0.6483
15036SOL    HW147102   6.389   4.711   3.843 -1.8206 -0.6845  0.0460
15036SOL    HW247103   6.282   4.783   3.923 -0.1767  2.1564 -0.1676
15037SOL     OW47104   0.989   7.479   2.696  0.2077 -0.4050  0.2795
15037SOL    HW147105   0.977   7.470   2.602  1.1927 -0.1384  0.1203
15037SOL    HW247106   1.049   7.553   2.706 -0.0780 -0.2707  1.1292
15038SOL     OW47107   0.314   7.813   2.446  0.7557 -0.0472 -0.1464
15038SOL    HW147108   0.387   7.791   2.388  0.8366  0.2056 -0.1427
15038SOL    HW247109   0.347   7.886   2.499  0.6437 -0.2001  0.1376
15039SOL     OW47110   7.471   6.022   5.789 -0.9171 -0.2081 -0.2257
15039SOL    HW147111   7.472   5.928   5.807  1.2298 -0.0094  1.1350
15039SOL    HW247112   7.509   6.031   5.702  0.3586 -0.5447  0.2786
15040SOL     OW47113   1.336   8.671   2.792 -0.1391 -0.1799  0.0294
15040SOL    HW147114   1.260   8.614   2.779  0.4636 -1.1346  0.5778
15040SOL    HW247115   1.318   8.747   2.736 -2.0788  0.2093  1.0668
15041SOL     OW47116   3.159   7.519   2.761  0.5181 -0.2705 -0.3197
15041SOL    HW147117   3.185   7.442   2.812  2.3283  0.3764 -0.1860
15041SOL    HW247118   3.185   7.499   2.672  0.1959 -0.1465 -0.4441
15042SOL     OW47119   6.504   5.139   0.290  0.4251 -0.5030 -0.3232
15042SOL    HW147120   6.519   5.068   0.227 -0.7790 -0.9248 -0.1617
15042SOL    HW247121   6.525   5.100   0.375  0.6663 -0.3692 -0.3197
15043SOL     OW47122   8.044   3.677   0.217 -0.4708 -0.2711  0.0759
15043SOL    HW147123   7.990   3.610   0.176 -0.9386 -0.1399  0.4745
15043SOL    HW247124   8.119   3.687   0.157  0.0293 -1.7175  0.4247
15044SOL     OW47125   7.842   5.820   1.411  0.0268  0.5918  0.1606
15044SOL    HW147126   7.804   5.903   1.380 -0.1454 -0.0494 -1.4516
15044SOL    HW247127   7.766   5.769   1.439 -0.3229 -0.3737 -2.2917
15045SOL     OW47128   8.455   3.655   5.241  0.1361  0.1796 -0.2002
15045SOL    HW147129   8.487   3.600   5.169 -0.9275  1.2120 -1.5189
15045SOL    HW247130   8.386   3.604   5.282 -1.8699  0.9804 -2.3370
15046SOL     OW47131   8.385   3.383   2.791 -0.5339  0.2070  0.0718
15046SOL    HW147132   8.403   3.348   2.878 -2.8510  1.4946  1.1523
15046SOL    HW247133   8.452   3.450   2.778 -0.5600  0.4516  1.1382
15047SOL     OW47134   2.060   5.868   4.640  0.0591 -0.2346 -0.1373
15047SOL    HW147135   2.150   5.853   4.612 -0.1241 -1.5375 -0.0665
15047SOL    HW247136   2.064   5.947   4.694  1.2352 -0.5716  0.2857
15048SOL     OW47137   4.964   1.533   1.031 -0.6715  0.0201 -0.0812
15048SOL    HW147138   5.015   1.466   0.986  0.1994  2.7819 -3.6340
15048SOL    HW247139   4.882   1.539   0.982 -1.5907  0.2399  1.4131
15049SOL     OW47140   5.965   2.655   3.504 -0.2289  0.8669 -0.2824
15049SOL    HW147141   6.011   2.737   3.487 -0.9593  1.7945  1.8205
15049SOL    HW247142   5.918   2.637   3.423  1.1633  1.6801 -1.3144
15050SOL     OW47143   5.140   4.459   2.878  0.5052 -0.5638 -0.1741
15050SOL    HW147144   5.202   4.532   2.884 -0.7087  0.4636  0.3809
15050SOL    HW247145   5.058   4.495   2.911 -0.2240 -2.0890 -0.2541
15051SOL     OW47146   0.248   3.773   3.645 -0.0544 -0.1720  0.2471
15051SOL    HW147147   0.200   3.711   3.590  1.0570 -0.8344 -0.0056
15051SOL    HW247148   0.297   3.718   3.706  2.2346  0.3298 -1.0320
15052SOL     OW47149   0.880   0.626   0.257 -0.3093  0.0995 -0.1375
15052SOL    HW147150   0.868   0.551   0.200 -2.4767  0.1824  0.1403
15052SOL    HW247151   0.918   0.590   0.337 -2.3736 -0.9577  0.4407
15053SOL     OW47152   1.298   1.906   6.907 -0.3763 -0.3291 -0.3187
15053SOL    HW147153   1.279   1.854   6.829  0.5632  0.4938 -1.1241
15053SOL    HW247154   1.369   1.965   6.880  0.7540 -0.7779  1.4749
15054SOL     OW47155   6.235   2.211   8.658  0.0038  0.2249  0.4442
15054SOL    HW147156   6.259   2.288   8.607  0.0656  0.0707  0.2364
15054SOL    HW247157   6.318   2.168   8.679 -0.0513 -0.0112  0.1955
15055SOL     OW47158   6.650   8.140   2.063  0.2019  0.0200  0.1330
15055SOL    HW147159   6.740   8.112   2.045  0.7180  0.9986  1.0788
15055SOL    HW247160   6.651   8.170   2.154 -0.6866  1.5575 -0.3257
15056SOL     OW47161   2.110   5.680   7.317 -0.7787  0.6526 -0.1832
15056SOL    HW147162   2.092   5.747   7.251  0.5424 -0.3543 -1.6559
15056SOL    HW247163   2.201   5.696   7.342 -0.4356 -0.5923 -0.5878
15057SOL     OW47164   2.247   7.829   2.416  0.2109 -0.1357  0.6327
15057SOL    HW147165   2.199   7.801   2.338  0.9609  0.1783  0.0472
15057SOL    HW247166   2.333   7.788   2.408  0.5240  0.4464  0.9397
15058SOL     OW47167   6.956   2.154   6.024 -0.2456  0.1712  0.3118
15058SOL    HW147168   6.889   2.122   5.963  0.4088 -0.8619  0.1176
15058SOL    HW247169   6.907   2.204   6.089 -1.3854 -1.7191  0.9713
15059SOL     OW47170   6.805   8.736   7.198  0.2018  0.1315 -0.2623
15059SOL    HW147171   6.806   8.750   7.292 -2.9158  0.8050 -0.2236
15059SOL    HW247172   6.773   8.818   7.162  1.3132 -0.1230 -1.9308
15060SOL     OW47173   2.335   3.434   2.669  0.2707 -0.1966  0.0350
15060SOL    HW147174   2.315   3.450   2.761  0.9457  0.1827  0.1169
15060SOL    HW247175   2.426   3.462   2.658 -0.1041  0.7304 -0.9750
15061SOL     OW47176   4.579   3.155   4.534  0.1710  0.4971  0.1499
15061SOL    HW147177   4.619   3.137   4.620 -1.2645 -0.6353  0.6332
15061SOL    HW247178   4.627   3.098   4.474 -0.4944 -0.6779  0.6828
15062SOL     OW47179   3.290   2.273   3.713 -0.3283  0.1691  0.2126
15062SOL    HW147180   3.380   2.304   3.707  0.0495 -1.0603 -1.1205
15062SOL    HW247181   3.297   2.186   3.753 -0.6676 -0.8016 -1.7257
15063SOL     OW47182   4.863   5.151   2.610  0.1132  0.3432  0.0076
15063SOL    HW147183   4.784   5.194   2.576 -0.8526 -0.7573  0.7605
15063SOL    HW247184   4.907   5.117   2.532 -0.8278 -0.1029 -0.3477
15064SOL     OW47185   7.491   6.237   1.943 -0.3228  0.4993 -0.4238
15064SOL    HW147186   7.486   6.152   1.986 -2.7133  1.2404  0.8969
15064SOL    HW247187   7.474   6.217   1.850  0.1055 -0.5383 -0.3008
15065SOL     OW47188   1.255   4.713   3.865  0.4547 -0.0714 -0.2366
15065SOL    HW147189   1.160   4.706   3.851  0.6271 -1.6238 -0.8466
15065SOL    HW247190   1.264   4.745   3.955 -0.6341  0.8606 -0.4262
15066SOL     OW47191   3.895   5.165   6.167  0.6775 -0.5276  0.1546
15066SOL    HW147192   3.837   5.177   6.092 -1.3074 -1.1352  1.5320
15066SOL    HW247193   3.978   5.203   6.139 -0.0208 -0.6618 -2.3089
15067SOL     OW47194   1.706   6.951   7.145 -0.3258  0.0644  0.2898
15067SOL    HW147195   1.634   6.892   7.121 -0.7879  0.8070 -0.1734
15067SOL    HW247196   1.750   6.906   7.217 -1.8652  0.0567  1.2767
15068SOL     OW47197   3.116   6.010   3.743  0.3951  0.1153 -0.6676
15068SOL    HW147198   3.092   6.084   3.800  0.3690  0.3027 -0.9207
15068SOL    HW247199   3.177   5.958   3.796  0.6399  0.4730 -0.5925
15069SOL     OW47200   2.531   2.858   1.263 -0.0501  0.5402 -0.0831
15069SOL    HW147201   2.465   2.844   1.330 -0.4875  0.0681 -0.6078
15069SOL    HW247202   2.534   2.953   1.250 -1.0118  0.5257 -0.4416
15070SOL     OW47203   4.947   4.637   3.945  0.0572  0.0470  0.0857
15070SOL    HW147204   4.899   4.674   4.019 -1.1471  0.0959 -0.6967
15070SOL    HW247205   4.888   4.572   3.908  0.7617 -0.1861 -0.6589
15071SOL     OW47206   2.044   8.871   4.122 -0.0323  0.0831  0.4162
15071SOL    HW147207   2.035   8.887   4.029  1.5040 -0.6201  0.1066
15071SOL    HW247208   2.135   8.894   4.142 -0.6953  1.5243  2.0400
15072SOL     OW47209   6.069   6.238   1.783 -0.0490  0.4829 -0.2681
15072SOL    HW147210   6.060   6.255   1.689  0.2303 -0.2437 -0.4355
15072SOL    HW247211   6.076   6.325   1.823  1.5479  0.7866 -1.1079
15073SOL     OW47212   3.579   5.613   7.740  0.1433 -0.3522 -0.1105
15073SOL    HW147213   3.661   5.625   7.787 -1.0341  0.5950  1.8158
15073SOL    HW247214   3.586   5.670   7.664  1.8380 -1.4356 -0.8370
15074SOL     OW47215   1.279   3.409   8.482 -0.4441  0.0209  0.6858
15074SOL    HW147216   1.305   3.420   8.574  0.5118 -1.4606  0.6344
15074SOL    HW247217   1.322   3.328   8.455  1.2420  1.5984 -1.7715
15075SOL     OW47218   3.808   8.504   2.050  0.1742  0.2616 -0.0514
15075SOL    HW147219   3.713   8.513   2.046 -0.0252 -1.8293 -1.0811
15075SOL    HW247220   3.840   8.594   2.043 -1.7120  1.0485  0.6391
15076SOL     OW47221   1.016   6.352   1.350 -0.6445 -0.2058 -0.3983
15076SOL    HW147222   1.091   6.313   1.396 -0.9581  0.4294  0.6996
15076SOL    HW247223   0.966   6.395   1.419 -2.2386 -0.9356 -1.0474
15077SOL     OW47224   1.787   6.608   3.329  0.0232 -0.0788  0.2604
15077SOL    HW147225   1.808   6.669   3.258 -0.2852  0.1306  0.3507
15077SOL    HW247226   1.721   6.550   3.293  3.4171 -3.3444 -1.4555
15078SOL     OW47227   3.929   0.719   6.381  0.2364  0.9228  0.4614
15078SOL    HW147228   3.922   0.756   6.293  0.4103 -2.5837 -1.2173
15078SOL    HW247229   4.023   0.721   6.400  0.5819 -0.7559 -0.7493
15079SOL     OW47230   2.067   5.688   5.640 -0.6482  0.5245  0.0932
15079SOL    HW147231   1.984   5.654   5.673 -1.8235  0.5740 -2.5206
15079SOL    HW247232   2.042   5.751   5.572  1.5274  0.7481 -0.5862
15080SOL     OW47233   4.497   4.275   0.341 -0.1720 -0.0120 -0.0548
15080SOL    HW147234   4.443   4.353   0.342  0.4236  0.4717 -1.6043
15080SOL    HW247235   4.587   4.307   0.351  0.2408 -0.2621 -2.3138
15081SOL     OW47236   6.381   1.957   3.940 -0.6277 -0.0274 -0.1055
15081SOL    HW147237   6.316   1.988   3.878 -1.0927  0.8663  0.8148
15081SOL    HW247238   6.434   2.034   3.961 -0.2384 -0.4017  0.3293
15082SOL     OW47239   5.889   8.004   3.786  0.7086 -0.3669  0.2598
15082SOL    HW147240   5.895   8.082   3.731  1.1586  0.0239  0.8588
15082SOL    HW247241   5.796   7.998   3.808  1.0631  1.7844  2.7235
15083SOL     OW47242   3.970   7.352   8.587  0.3796  0.4868  0.0466
15083SOL    HW147243   4.028   7.425   8.609  1.1767  0.3440 -1.4376
15083SOL    HW247244   4.026   7.290   8.541 -0.7051 -0.1916 -0.3956
15084SOL     OW47245   6.561   2.211   2.765  0.4034 -0.2910 -0.2284
15084SOL    HW147246   6.546   2.266   2.688 -2.1039 -3.2219 -2.0550
15084SOL    HW247247   6.629   2.150   2.737  0.6916 -0.3341  0.5345
15085SOL     OW47248   5.394   1.955   2.339  0.4748  0.1196 -0.3346
15085SOL    HW147249   5.467   1.895   2.322 -1.4954 -1.8918 -2.2375
15085SOL    HW247250   5.425   2.040   2.307  1.4639 -1.0290 -2.6738
15086SOL     OW47251   7.256   3.205   2.874  0.2749  0.5473 -0.0533
15086SOL    HW147252   7.339   3.159   2.867  1.7043  2.8202  0.9064
15086SOL    HW247253   7.257   3.268   2.802 -0.0029  1.4618  0.7145
15087SOL     OW47254   8.804   4.955   0.892 -0.2261 -0.0679 -0.5358
15087SOL    HW147255   8.870   4.995   0.837  0.1244  1.4231  0.8888
15087SOL    HW247256   8.841   4.870   0.918  0.8082  0.4437 -0.3336
15088SOL     OW47257   7.792   1.391   6.411 -0.1798 -0.3587  0.1086
15088SOL    HW147258   7.777   1.374   6.318  1.2362 -0.3174 -0.1493
15088SOL    HW247259   7.866   1.452   6.413  0.1393 -0.7575  1.2654
15089SOL     OW47260   7.029   8.462   2.900  0.0752 -0.0727 -0.1086
15089SOL    HW147261   7.015   8.540   2.846  2.0654 -0.4911 -1.3464
15089SOL    HW247262   6.950   8.454   2.953 -0.8529  1.8502 -1.1245
15090SOL     OW47263   6.137   5.839   3.352 -0.3608  0.1764 -0.1361
15090SOL    HW147264   6.050   5.880   3.348 -0.4850 -0.0003  0.6536
15090SOL    HW247265   6.119   5.745   3.343 -0.3049  0.0959  0.5410
15091SOL     OW47266   3.765   0.476   3.739  0.1860  0.3913  0.3103
15091SOL    HW147267   3.694   0.438   3.688 -0.6142  1.2332  0.7768
15091SOL    HW247268   3.822   0.517   3.674 -0.4727  0.8802  0.0322
15092SOL     OW47269   0.446   8.414   8.434  0.2050  0.0878 -0.8621
15092SOL    HW147270   0.495   8.373   8.505 -1.7912 -0.1392  0.4510
15092SOL    HW247271   0.443   8.507   8.458 -0.7892 -0.0460 -0.4192
15093SOL     OW47272   6.009   7.266   8.256 -0.4443  0.2495  0.8712
15093SOL    HW147273   5.919   7.270   8.225 -1.1156  0.4988  2.7456
15093SOL    HW247274   6.019   7.342   8.312  1.4554  1.1160 -0.5114
15094SOL     OW47275   8.305   2.368   5.959 -0.0093 -0.3292 -0.1098
15094SOL    HW147276   8.352   2.284   5.958 -0.2939 -0.4839 -0.4514
15094SOL    HW247277   8.338   2.415   5.883  0.7924  0.2316  0.5613
15095SOL     OW47278   8.353   3.591   7.589  0.3756 -0.5614 -0.2743
15095SOL    HW147279   8.409   3.650   7.538  0.7662  0.0986  0.8668
15095SOL    HW247280   8.327   3.523   7.527 -0.8010  1.2537 -1.8997
15096SOL     OW47281   4.337   7.845   3.858 -0.1180  0.2058  0.0231
15096SOL    HW147282   4.393   7.795   3.917 -0.8272 -0.4320  0.1688
15096SOL    HW247283   4.359   7.813   3.770 -1.1474 -0.9790  0.1734
15097SOL     OW47284   1.230   4.590   3.082 -0.1065  0.2683  0.0065
15097SOL    HW147285   1.270   4.531   3.146 -1.5464  1.0719  1.7461
15097SOL    HW247286   1.143   4.609   3.118 -0.8152  1.1218 -1.9883
15098SOL     OW47287   1.009   0.252   0.650 -0.5434 -0.1468 -0.1216
15098SOL    HW147288   0.967   0.255   0.736  0.1265  1.9971  0.1878
15098SOL    HW247289   1.102   0.269   0.669 -0.2615 -0.4093 -1.2120
15099SOL     OW47290   0.732   6.076   3.758 -0.0186  0.5168  0.2492
15099SOL    HW147291   0.702   6.160   3.792  1.3613  1.7042 -1.3284
15099SOL    HW247292   0.667   6.054   3.690 -1.0713 -0.3517  1.4916
15100SOL     OW47293   8.374   3.498   8.066  0.3357  0.0139 -0.0420
15100SOL    HW147294   8.456   3.470   8.107  0.5835 -1.6146 -1.5047
15100SOL    HW247295   8.397   3.513   7.974 -0.7483  0.8297 -0.2047
15101SOL     OW47296   4.794   5.264   6.346  0.8196 -0.1674  0.2482
15101SOL    HW147297   4.728   5.242   6.280  1.0303  0.4134 -0.1568
15101SOL    HW247298   4.769   5.212   6.422 -0.4435  0.4539  0.2842
15102SOL     OW47299   6.676   8.239   5.380  0.2402 -0.3147 -0.6279
15102SOL    HW147300   6.595   8.237   5.329  0.7408 -0.5351 -1.4396
15102SOL    HW247301   6.653   8.197   5.463 -0.3104 -0.9716 -1.0993
15103SOL     OW47302   1.773   2.219   6.504 -0.3021 -0.4306 -0.0522
15103SOL    HW147303   1.711   2.281   6.464  0.6474  0.1434 -0.6605
15103SOL    HW247304   1.734   2.198   6.589  0.2512  2.4794  1.0313
15104SOL     OW47305   6.375   6.480   6.895 -0.2413 -0.3884 -0.0380
15104SOL    HW147306   6.288   6.444   6.911 -0.0279 -1.2769 -0.7794
15104SOL    HW247307   6.364   6.575   6.903 -1.3765 -0.4633 -0.5497
15105SOL     OW47308   0.747   7.434   2.809  0.2139  0.1729 -0.5164
15105SOL    HW147309   0.761   7.352   2.856 -0.7598  1.0737  1.4465
15105SOL    HW247310   0.835   7.468   2.794  0.5756 -0.4863  0.0265
15106SOL     OW47311   0.224   3.057   5.020  0.0961  0.0078 -0.0712
15106SOL    HW147312   0.250   2.994   4.952  0.6395 -0.0990  0.2245
15106SOL    HW247313   0.160   3.010   5.073 -0.3990  0.1227 -0.5562
15107SOL     OW47314   7.182   5.743   5.039  0.0682  0.0875  0.0552
15107SOL    HW147315   7.119   5.813   5.055 -0.5704 -0.8392  1.8770
15107SOL    HW247316   7.139   5.686   4.975 -0.2562  0.3208  0.0613
15108SOL     OW47317   2.769   4.128   7.772 -0.3921 -0.2525 -0.4656
15108SOL    HW147318   2.822   4.099   7.846 -1.0801  0.1688  0.2127
15108SOL    HW247319   2.812   4.208   7.742  0.1331 -0.6594 -0.7963
15109SOL     OW47320   3.540   1.730   4.108 -0.5158  0.1090 -0.1552
15109SOL    HW147321   3.632   1.718   4.133 -0.6661 -0.3844  0.1840
15109SOL    HW247322   3.510   1.805   4.159 -0.7216 -0.6713  0.9163
15110SOL     OW47323   4.574   4.981   2.057 -0.0172 -0.0608 -0.4306
15110SOL    HW147324   4.596   4.888   2.069  1.3757  0.3401  0.3951
15110SOL    HW247325   4.480   4.986   2.074 -0.0540 -1.2726 -0.1626
15111SOL     OW47326   0.995   2.370   6.613  0.7057 -0.0034 -0.6941
15111SOL    HW147327   1.071   2.335   6.660  0.0928  1.6477  1.6712
15111SOL    HW247328   1.014   2.463   6.603 -0.6776  0.2899 -0.7752
15112SOL     OW47329   2.319   1.982   5.648 -0.0365 -0.2725 -0.3494
15112SOL    HW147330   2.260   1.939   5.710  0.9764 -1.5105 -0.1961
15112SOL    HW247331   2.373   2.039   5.702  0.3296 -0.7706 -0.1766
15113SOL     OW47332   3.656   8.776   7.973 -0.0405 -0.0383  0.4258
15113SOL    HW147333   3.612   8.832   8.038  1.4998  2.5275 -0.5959
15113SOL    HW247334   3.585   8.724   7.935 -1.2391 -0.4352  2.9264
15114SOL     OW47335   5.443   0.338   8.086 -0.4363 -0.2452  0.4218
15114SOL    HW147336   5.369   0.393   8.112 -0.5091  0.9245 -2.0140
15114SOL    HW247337   5.402   0.262   8.045 -0.5592  1.9384 -4.1121
15115SOL     OW47338   5.788   0.385   6.440  0.1262  0.4423 -0.3207
15115SOL    HW147339   5.866   0.346   6.480  1.4351  2.7306 -0.5079
15115SOL    HW247340   5.716   0.354   6.494  0.8821 -2.9304 -0.9728
15116SOL     OW47341   6.036   5.289   5.532  0.0836 -0.3008 -0.6289
15116SOL    HW147342   5.969   5.221   5.523  0.5012 -0.6028 -1.5546
15116SOL    HW247343   6.076   5.273   5.618 -2.7802  1.5092  1.2432
15117SOL     OW47344   7.890   5.689   4.604  0.4807 -0.3135 -0.1377
15117SOL    HW147345   7.985   5.682   4.589  0.5338 -0.7792  0.4051
15117SOL    HW247346   7.867   5.608   4.649  0.0862  0.4556  1.0684
15118SOL     OW47347   8.043   5.546   4.304  0.2432 -0.0556  0.1477
15118SOL    HW147348   8.094   5.570   4.382  0.2751 -2.3291  0.9041
15118SOL    HW247349   7.955   5.529   4.337 -0.2282  0.7691 -0.6448
15119SOL     OW47350   5.457   6.538   4.858 -0.4758 -0.5238 -0.0037
15119SOL    HW147351   5.524   6.567   4.920  0.1066 -0.9164 -0.4399
15119SOL    HW247352   5.483   6.577   4.774 -1.6839  0.6509  0.1251
15120SOL     OW47353   2.834   5.834   6.389  0.1821 -0.4076  0.5612
15120SOL    HW147354   2.769   5.871   6.329  0.3133  0.2516  0.8200
15120SOL    HW247355   2.896   5.788   6.332  1.0442  1.3137  0.0428
15121SOL     OW47356   5.536   8.613   7.802  0.5862 -0.0250 -0.1429
15121SOL    HW147357   5.564   8.655   7.721  2.3894  0.6566  0.7671
15121SOL    HW247358   5.465   8.667   7.835 -0.2191 -0.3565 -1.2767
15122SOL     OW47359   4.442   4.857   3.874  0.8456  0.5885 -0.2339
15122SOL    HW147360   4.500   4.782   3.863  0.3789  0.1410  0.3145
15122SOL    HW247361   4.418   4.882   3.785  0.3399 -0.4382 -0.3963
15123SOL     OW47362   2.375   3.766   8.652 -0.4433 -0.2711 -0.2849
15123SOL    HW147363   2.344   3.699   8.592  1.6163 -0.0941 -1.6230
15123SOL    HW247364   2.430   3.719   8.715 -1.7200 -0.2895  0.8694
15124SOL     OW47365   8.524   3.581   7.857  0.1771  0.1552  0.5135
15124SOL    HW147366   8.580   3.503   7.857  0.5193  0.3992  0.6250
15124SOL    HW247367   8.491   3.586   7.767 -0.8393 -0.8182  0.8080
15125SOL     OW47368   7.623   5.081   6.407 -0.4918 -0.9756 -0.5757
15125SOL    HW147369   7.669   4.999   6.391  1.8798  0.3354 -0.9706
15125SOL    HW247370   7.662   5.115   6.488 -2.4408 -0.8726  0.3622
15126SOL     OW47371   3.039   6.279   7.475  0.7622  0.1744  0.0512
15126SOL    HW147372   3.005   6.367   7.491 -2.1759 -0.4304 -2.1026
15126SOL    HW247373   3.100   6.289   7.402  0.7345  0.4730  0.0679
15127SOL     OW47374   0.946   3.150   2.059 -0.5261  0.3074 -0.1721
15127SOL    HW147375   0.925   3.071   2.010  0.6668 -0.9457  1.2383
15127SOL    HW247376   0.862   3.195   2.069 -1.1368 -0.5006 -1.4428
15128SOL     OW47377   0.983   5.375   3.957  0.4486 -0.3994 -0.4979
15128SOL    HW147378   0.914   5.341   4.014  1.6969  0.3943  1.6013
15128SOL    HW247379   1.028   5.296   3.926 -0.4305 -0.8601 -0.6651
15129SOL     OW47380   8.360   8.540   3.897 -0.3741 -0.0623  0.2983
15129SOL    HW147381   8.452   8.516   3.886 -0.2389 -0.2020  1.5928
15129SOL    HW247382   8.336   8.582   3.814  0.0893 -2.3926 -1.1261
15130SOL     OW47383   8.515   6.720   5.020 -0.3229 -0.1512  0.1361
15130SOL    HW147384   8.424   6.748   5.028 -0.3756  0.0147 -0.9175
15130SOL    HW247385   8.562   6.774   5.084 -0.7729  0.6985 -0.2302
15131SOL     OW47386   5.261   4.632   2.516 -0.5602  0.0461 -0.0197
15131SOL    HW147387   5.223   4.706   2.469 -1.9802 -0.9107 -0.4556
15131SOL    HW247388   5.323   4.594   2.455 -1.1239 -0.1567 -0.4747
15132SOL     OW47389   3.542   2.277   4.608 -0.4103  0.3352  0.1541
15132SOL    HW147390   3.607   2.276   4.538 -1.3920 -1.0203 -0.8041
15132SOL    HW247391   3.477   2.342   4.580 -1.0443 -0.5368 -0.4781
15133SOL     OW47392   1.411   3.400   7.541 -0.6948  0.3062  0.3969
15133SOL    HW147393   1.371   3.431   7.460  0.9655  2.1598  0.2376
15133SOL    HW247394   1.448   3.315   7.519 -0.8239  0.5037 -0.6061
15134SOL     OW47395   4.329   7.957   7.637  0.3636 -0.2881  0.5436
15134SOL    HW147396   4.344   7.888   7.703  0.2115 -1.4602 -0.6158
15134SOL    HW247397   4.235   7.956   7.622  0.2704  0.6519  0.9970
15135SOL     OW47398   6.383   2.911   0.442  0.3083  0.1676 -0.4344
15135SOL    HW147399   6.405   2.995   0.402 -0.3268  0.0644 -1.0077
15135SOL    HW247400   6.437   2.847   0.395 -0.6649  0.0067 -1.3492
15136SOL     OW47401   8.138   5.841   6.297  0.6253  0.1292  0.0956
15136SOL    HW147402   8.174   5.925   6.323 -1.3199  0.9184  0.4248
15136SOL    HW247403   8.059   5.863   6.248 -1.3062 -1.4633  2.2736
15137SOL     OW47404   2.888   0.682   2.059 -0.0702 -0.0115  0.2709
15137SOL    HW147405   2.880   0.729   1.976  1.5959  0.6811  0.4763
15137SOL    HW247406   2.937   0.603   2.037 -0.1695 -0.1320  0.4832
15138SOL     OW47407   0.363   3.278   7.280  0.2712 -0.0544 -0.5132
15138SOL    HW147408   0.317   3.267   7.197 -0.4035 -0.9754 -0.0273
15138SOL    HW247409   0.294   3.277   7.347  0.7009  1.6706  0.0059
15139SOL     OW47410   7.736   6.760   5.666 -0.7336  0.3437 -0.4038
15139SOL    HW147411   7.684   6.768   5.746  0.3812 -0.7725  0.4808
15139SOL    HW247412   7.812   6.817   5.681 -1.5352  1.8107 -1.6015
15140SOL     OW47413   1.683   2.940   2.370  0.3630 -0.3837  0.6371
15140SOL    HW147414   1.684   2.867   2.308 -0.7308  0.3827 -0.3342
15140SOL    HW247415   1.618   2.915   2.436  0.4937 -0.5813  0.6920
15141SOL     OW47416   1.745   3.758   5.730  0.0971  0.0043  1.1736
15141SOL    HW147417   1.724   3.809   5.808  0.7364 -0.7596  1.8681
15141SOL    HW247418   1.732   3.667   5.756 -2.0548 -0.1998 -0.3464
15142SOL     OW47419   7.337   6.178   7.204 -0.4558  0.8530  0.1509
15142SOL    HW147420   7.316   6.267   7.232 -1.0999  1.0205 -0.8188
15142SOL    HW247421   7.426   6.184   7.169 -0.8165  1.3175 -0.7165
15143SOL     OW47422   6.509   4.837   6.567 -0.6435  1.1738 -0.7855
15143SOL    HW147423   6.427   4.841   6.617 -0.7832 -1.3771 -0.6597
15143SOL    HW247424   6.576   4.821   6.634 -0.4041  0.8471 -1.0975
15144SOL     OW47425   5.755   7.586   0.401 -0.0075  0.2562 -0.2947
15144SOL    HW147426   5.834   7.573   0.348 -0.5612 -0.0280 -1.0822
15144SOL    HW247427   5.762   7.521   0.470  0.6769  0.5523 -0.0750
15145SOL     OW47428   3.207   1.818   4.314 -0.6950  0.1929 -0.1327
15145SOL    HW147429   3.244   1.806   4.402  2.7963  1.0250 -1.3188
15145SOL    HW247430   3.193   1.729   4.282  0.2143 -0.1801  0.4556
15146SOL     OW47431   8.833   1.714   0.242 -0.0406  0.4592 -0.1852
15146SOL    HW147432   8.842   1.799   0.285  1.4484  0.3554 -0.2538
15146SOL    HW247433   8.740   1.693   0.251 -0.4692  2.1388 -0.2718
15147SOL     OW47434   7.056   0.871   7.127  0.2762  0.2136 -0.3262
15147SOL    HW147435   7.100   0.955   7.136 -0.3418  0.4239  0.8841
15147SOL    HW247436   7.124   0.806   7.147  0.2689  0.5022  0.6755
15148SOL     OW47437   6.555   2.331   5.171 -0.1491  0.8736  0.1220
15148SOL    HW147438   6.530   2.375   5.090 -0.1217  2.1960  0.8080
15148SOL    HW247439   6.486   2.267   5.187  0.4737 -0.2966 -1.5775
15149SOL     OW47440   6.227   5.890   2.075  0.2718 -0.1110  0.5296
15149SOL    HW147441   6.219   5.943   1.996  3.2236  0.8758  0.7946
15149SOL    HW247442   6.265   5.807   2.045  1.1330  0.1589  0.8526
15150SOL     OW47443   1.619   1.128   1.315 -0.4221  0.4982 -0.0828
15150SOL    HW147444   1.599   1.119   1.222  1.0568  0.9879 -0.4687
15150SOL    HW247445   1.714   1.142   1.318 -0.2572 -0.6949  1.5709
15151SOL     OW47446   0.873   7.008   1.466 -0.2345 -0.4852  0.0045
15151SOL    HW147447   0.886   7.092   1.510 -0.2234 -0.9509  0.9037
15151SOL    HW247448   0.890   7.027   1.374 -0.0878  0.4679  0.2151
15152SOL     OW47449   2.573   6.978   8.734 -0.1134  0.3878 -0.4711
15152SOL    HW147450   2.551   7.069   8.714 -0.3033  0.2159 -1.0729
15152SOL    HW247451   2.547   6.930   8.655  0.8802 -0.0489 -0.5452
15153SOL     OW47452   0.174   0.599   0.394 -0.2291  0.2888 -0.3054
15153SOL    HW147453   0.166   0.662   0.465 -0.8243  0.2684 -0.3524
15153SOL    HW247454   0.203   0.651   0.319 -0.3926  0.4476 -0.2575
15154SOL     OW47455   0.471   6.492   7.761 -0.0473  0.0379 -0.2064
15154SOL    HW147456   0.411   6.442   7.816 -0.2072 -2.5932 -2.5430
15154SOL    HW247457   0.558   6.458   7.784 -0.0980 -0.9208 -1.3069
15155SOL     OW47458   7.102   3.185   5.791 -0.0545  0.3321 -0.1095
15155SOL    HW147459   7.048   3.129   5.848 -0.5778  1.2550  0.3243
15155SOL    HW247460   7.177   3.210   5.845  0.3678 -0.2405 -0.4244
15156SOL     OW47461   2.383   4.536   3.403  0.1572 -0.1467 -0.2046
15156SOL    HW147462   2.329   4.478   3.456 -0.2765 -0.6370 -1.1590
15156SOL    HW247463   2.421   4.479   3.335  1.4079  0.2961  0.0955
15157SOL     OW47464   6.268   6.285   5.684  0.4819 -0.0998 -0.8288
15157SOL    HW147465   6.239   6.194   5.691 -0.6107  0.2699 -0.2827
15157SOL    HW247466   6.205   6.325   5.624  0.7875  0.3539 -0.8488
15158SOL     OW47467   4.764   1.294   0.008 -0.8919 -0.3543  0.3658
15158SOL    HW147468   4.751   1.373   0.060  0.8138  1.4496 -1.7144
15158SOL    HW247469   4.678   1.274  -0.029 -0.8962  2.3559 -1.3541
15159SOL     OW47470   5.030   6.777   6.765 -0.1114 -0.1677 -0.1436
15159SOL    HW147471   4.962   6.828   6.808  0.6969  1.2559 -0.4859
15159SOL    HW247472   5.056   6.830   6.690 -0.6202 -2.0248 -1.7086
15160SOL     OW47473   1.353   0.956   1.964  0.1215  0.4494 -0.1887
15160SOL    HW147474   1.402   1.036   1.986  0.3798  0.3293 -0.3161
15160SOL    HW247475   1.331   0.967   1.871  0.1429  0.3811 -0.2018
15161SOL     OW47476   5.366   4.020   3.809  0.2500  0.0375  0.0987
15161SOL    HW147477   5.442   3.981   3.766  0.5619 -0.3930  1.0104
15161SOL    HW247478   5.298   4.022   3.741  1.4781  1.7571 -1.1701
15162SOL     OW47479   1.808   2.629   6.955 -0.2403 -0.0705  0.0551
15162SOL    HW147480   1.786   2.626   7.049  0.8043  1.3107  0.3745
15162SOL    HW247481   1.902   2.612   6.952 -0.0235  1.1097 -0.6033
15163SOL     OW47482   6.162   3.863   6.880 -0.4247 -0.5877  0.3718
15163SOL    HW147483   6.195   3.925   6.815 -2.3625  0.6334  0.4534
15163SOL    HW247484   6.240   3.825   6.919  0.8120 -0.5043 -1.8512
15164SOL     OW47485   8.726   0.474   2.949  0.2290  0.0749  0.8936
15164SOL    HW147486   8.691   0.558   2.921 -2.1864 -0.7481  1.2186
15164SOL    HW247487   8.804   0.496   3.000  0.6146  1.9742 -0.4138
15165SOL     OW47488   1.802   7.369   0.114  0.3493 -0.7699 -0.0648
15165SOL    HW147489   1.760   7.455   0.117  0.4136 -0.7632  2.1793
15165SOL    HW247490   1.746   7.318   0.056  0.6283  0.8995 -1.9270
15166SOL     OW47491   5.438   2.382   1.471 -0.5207  0.1681 -0.1446
15166SOL    HW147492   5.490   2.438   1.413 -1.6182  1.6900  0.2587
15166SOL    HW247493   5.356   2.430   1.483 -1.7399 -1.8251 -0.1891
15167SOL     OW47494   1.939   7.992   8.685  0.5264  0.7920 -0.3732
15167SOL    HW147495   1.927   8.017   8.594  0.7828  1.3621 -0.2575
15167SOL    HW247496   1.908   8.068   8.735 -1.5247 -0.2809  0.0759
15168SOL     OW47497   3.873   8.357   3.524 -0.1985 -0.3634 -0.4749
15168SOL    HW147498   3.895   8.364   3.431  2.7188  0.9188  0.1964
15168SOL    HW247499   3.953   8.325   3.564 -1.5536 -1.3573  1.5992
15169SOL     OW47500   8.306   0.741   0.291  0.0024 -0.1750  0.6653
15169SOL    HW147501   8.335   0.650   0.293 -1.9802 -0.8862 -0.5126
15169SOL    HW247502   8.371   0.786   0.237  0.5216 -1.0738  0.5207
15170SOL     OW47503   8.199   6.445   2.487 -0.1353 -0.0668  0.9833
15170SOL    HW147504   8.108   6.415   2.479  0.2163 -1.0513  0.4542
15170SOL    HW247505   8.194   6.524   2.540 -1.3853  0.3149  0.3331
15171SOL     OW47506   5.775   4.696   0.019 -0.0410  0.1170 -0.7288
15171SOL    HW147507   5.868   4.679   0.001 -0.2352 -1.4106 -0.4272
15171SOL    HW247508   5.768   4.791   0.019  1.9597  0.3466  1.3344
15172SOL     OW47509   0.435   2.383   1.245 -0.0671  0.4552 -0.2848
15172SOL    HW147510   0.460   2.308   1.300  0.2853  0.7821  0.0111
15172SOL    HW247511   0.357   2.354   1.199 -0.5894  0.2923  0.6712
15173SOL     OW47512   7.735   0.637   0.247  0.3388  0.6848 -0.2722
15173SOL    HW147513   7.728   0.722   0.289  0.0616  0.1894  0.7376
15173SOL    HW247514   7.726   0.574   0.319 -0.4670 -0.2095 -1.1235
15174SOL     OW47515   8.150   0.167   3.682 -0.2776 -0.1514 -0.4354
15174SOL    HW147516   8.145   0.071   3.687  0.6797 -0.2266 -0.6463
15174SOL    HW247517   8.217   0.184   3.616  0.3533  0.6450  0.3793
15175SOL     OW47518   3.159   5.769   8.002 -0.2224  0.0160  0.0371
15175SOL    HW147519   3.239   5.796   8.047  0.2345 -1.9495  0.4970
15175SOL    HW247520   3.190   5.719   7.926 -1.0370  0.4645 -0.6178
15176SOL     OW47521   2.373   0.530   6.280 -0.2596 -0.1417 -0.0482
15176SOL    HW147522   2.341   0.567   6.198 -0.6444 -1.7663 -0.6788
15176SOL    HW247523   2.446   0.587   6.306  0.2923  0.0400 -1.8634
15177SOL     OW47524   6.875   5.527   7.755  0.3589 -0.2646 -0.1882
15177SOL    HW147525   6.950   5.468   7.772  1.2658  0.9319  0.0957
15177SOL    HW247526   6.910   5.592   7.694 -1.1953 -1.1028 -2.0971
15178SOL     OW47527   4.702   1.040   7.550 -0.2420 -0.6723 -0.0427
15178SOL    HW147528   4.714   0.949   7.525 -0.7065 -0.5482 -0.7335
15178SOL    HW247529   4.634   1.073   7.492  0.8932  0.4930 -0.7799
15179SOL     OW47530   5.568   2.950   2.071  0.0248 -0.2294  0.3666
15179SOL    HW147531   5.609   3.035   2.086  0.3679 -0.6692  2.1295
15179SOL    HW247532   5.605   2.919   1.988  0.1359  1.1743 -0.1311
15180SOL     OW47533   3.432   1.488   3.592  0.0747  0.2810  0.6080
15180SOL    HW147534   3.508   1.511   3.645  1.7394 -1.2428 -0.9572
15180SOL    HW247535   3.457   1.511   3.503 -1.1542 -0.5667  0.0062
15181SOL     OW47536   3.964   3.236   4.983  0.0515  0.1276 -0.1268
15181SOL    HW147537   3.945   3.144   5.000 -0.7947  0.0527 -1.3523
15181SOL    HW247538   4.036   3.257   5.042 -0.6102 -0.9564  1.1007
15182SOL     OW47539   4.262   0.750   4.292 -0.1382  0.6370  0.0783
15182SOL    HW147540   4.300   0.714   4.212  0.6375 -2.8453  1.8169
15182SOL    HW247541   4.278   0.844   4.285  5.4450 -0.0342 -1.1987
15183SOL     OW47542   1.019   5.725   5.798  0.2224 -0.4967 -0.7348
15183SOL    HW147543   1.111   5.697   5.790  0.7755  0.3222  1.9681
15183SOL    HW247544   0.992   5.695   5.884 -1.7932  0.0927 -1.1161
15184SOL     OW47545   1.645   2.362   3.102  0.1556  0.4424  0.4973
15184SOL    HW147546   1.555   2.356   3.135  0.6401 -2.0789  1.6365
15184SOL    HW247547   1.637   2.397   3.014 -1.9247  0.4658  0.6595
15185SOL     OW47548   0.187   3.007   4.023 -0.8379  0.2040 -0.0173
15185SOL    HW147549   0.258   2.992   3.961 -1.5400  0.4538 -0.8947
15185SOL    HW247550   0.133   2.928   4.018  0.9587 -1.4216  2.9170
15186SOL     OW47551   2.593   1.082   0.668  0.4483  0.1087 -0.0589
15186SOL    HW147552   2.538   1.038   0.603 -0.5348 -0.3229  1.0373
15186SOL    HW247553   2.621   1.163   0.624 -1.8141  0.8029 -0.3840
15187SOL     OW47554   4.931   8.628   5.035  0.5469 -1.0425 -0.1255
15187SOL    HW147555   4.936   8.586   4.949  1.4780 -2.8579  0.7646
15187SOL    HW247556   4.849   8.594   5.073 -1.2691  1.7635 -1.2156
15188SOL     OW47557   2.714   3.425   5.781  0.1554 -0.0831  0.5974
15188SOL    HW147558   2.668   3.505   5.756  0.5136  0.2227  0.9173
15188SOL    HW247559   2.800   3.454   5.811  0.7897 -0.6845 -0.5262
15189SOL     OW47560   8.011   2.303   3.417  0.3702 -1.0226  0.3325
15189SOL    HW147561   7.970   2.389   3.428  0.1136 -1.1168  0.1252
15189SOL    HW247562   7.938   2.241   3.421  0.5621 -1.2348  0.5372
15190SOL     OW47563   4.204   0.957   6.240 -0.5286  0.1819  0.2928
15190SOL    HW147564   4.260   0.879   6.246 -0.2313  0.2419 -1.2120
15190SOL    HW247565   4.266   1.030   6.238 -0.6610  0.2762 -0.9587
15191SOL     OW47566   7.321   0.994   2.447  0.0265  0.4917  0.2731
15191SOL    HW147567   7.407   0.955   2.461 -0.1185  0.4937  1.2077
15191SOL    HW247568   7.260   0.921   2.449 -0.1050  0.6078  0.7251
15192SOL     OW47569   3.292   7.909   5.174 -0.4145  0.2525 -0.1201
15192SOL    HW147570   3.264   7.841   5.114 -2.3376  1.3419 -0.5410
15192SOL    HW247571   3.264   7.991   5.133  1.7859  1.3561  0.3708
15193SOL     OW47572   7.352   2.910   0.919 -0.3724  0.1381  0.4779
15193SOL    HW147573   7.288   2.975   0.891 -1.1816 -1.3511 -1.3583
15193SOL    HW247574   7.429   2.927   0.865 -0.6181 -0.4466 -0.0729
15194SOL     OW47575   0.077   1.577   3.044  0.3647 -0.2633  0.0623
15194SOL    HW147576   0.020   1.635   2.993 -0.3326  0.2452  1.3769
15194SOL    HW247577   0.039   1.490   3.034 -1.1376  0.1683  1.5070
15195SOL     OW47578   2.429   0.135   8.123  0.3460  0.5447  0.2218
15195SOL    HW147579   2.461   0.137   8.213 -1.3994  0.8805  0.8901
15195SOL    HW247580   2.455   0.050   8.089 -1.8862 -1.0935  2.2483
15196SOL     OW47581   0.557   4.828   5.077  0.8531  0.5093 -0.5270
15196SOL    HW147582   0.567   4.735   5.058 -2.0066  0.1681 -0.7992
15196SOL    HW247583   0.640   4.868   5.048  2.3502 -1.9588  0.0939
15197SOL     OW47584   7.242   6.605   3.717 -0.0682 -0.3968  0.7342
15197SOL    HW147585   7.317   6.580   3.771 -0.5201 -0.9725  1.1105
15197SOL    HW247586   7.241   6.540   3.646 -0.5673 -0.7669  1.0730
15198SOL     OW47587   2.128   2.920   7.620 -0.2183  0.4746  0.4622
15198SOL    HW147588   2.101   2.829   7.611 -2.0655  1.0536 -0.4406
15198SOL    HW247589   2.099   2.945   7.708  0.2958  0.2036  0.7133
15199SOL     OW47590   6.940   4.602   2.679  0.0597  0.0492 -0.0823
15199SOL    HW147591   6.994   4.676   2.710 -0.2179  0.6928 -1.0965
15199SOL    HW247592   7.000   4.550   2.625 -0.2402  0.5945 -0.9531
15200SOL     OW47593   4.697   5.673   3.111 -0.2120 -0.2512 -0.0331
15200SOL    HW147594   4.701   5.645   3.203  0.0922  1.3722  0.4834
15200SOL    HW247595   4.717   5.594   3.061  3.6198 -0.3849  1.3882
15201SOL     OW47596   4.028   3.307   3.821  0.0323  0.1137  0.2929
15201SOL    HW147597   4.019   3.261   3.738 -0.0496  0.9057 -0.1459
15201SOL    HW247598   3.938   3.316   3.854  0.1475 -1.2124  1.0487
15202SOL     OW47599   1.567   1.520   0.052  0.5569 -0.0547  0.2062
15202SOL    HW147600   1.583   1.489  -0.037  0.5768  0.7924 -0.0986
15202SOL    HW247601   1.639   1.484   0.103  1.8377  1.2895 -0.5734
15203SOL     OW47602   8.210   2.077   0.746  0.1861 -0.3486 -0.7312
15203SOL    HW147603   8.220   1.997   0.797  0.2850 -0.1405 -0.4212
15203SOL    HW247604   8.194   2.047   0.657 -0.8398 -0.7275 -0.4379
15204SOL     OW47605   8.569   3.149   1.587 -0.2175  0.1238 -0.3456
15204SOL    HW147606   8.615   3.222   1.545  1.2029 -1.0660 -0.9171
15204SOL    HW247607   8.538   3.186   1.670 -0.5264  1.6867 -1.1039
15205SOL     OW47608   1.520   7.551   7.265  0.6364 -0.0078  0.2072
15205SOL    HW147609   1.604   7.507   7.258  1.0829  1.0342 -3.0900
15205SOL    HW247610   1.493   7.565   7.174 -2.0361  1.6978  1.1296
15206SOL     OW47611   1.475   7.836   7.806 -0.1397 -0.1670  0.4601
15206SOL    HW147612   1.389   7.832   7.765 -1.3145  0.8835  2.6047
15206SOL    HW247613   1.513   7.918   7.775 -0.8283  0.3963  1.0548
15207SOL     OW47614   5.947   6.188   7.686  0.1157 -0.0862 -0.3224
15207SOL    HW147615   5.911   6.187   7.597 -0.5225 -3.2585 -0.1263
15207SOL    HW247616   5.940   6.098   7.716  1.9319  0.5478  2.3444
15208SOL     OW47617   3.875   2.165   8.758  0.2398 -0.1068  0.1990
15208SOL    HW147618   3.885   2.088   8.702 -1.3628  0.3051 -0.7024
15208SOL    HW247619   3.907   2.238   8.704  1.4147 -0.0598  0.9169
15209SOL     OW47620   5.054   0.761   3.878  0.1289 -0.4911 -0.0721
15209SOL    HW147621   5.120   0.721   3.933 -0.1991 -3.1230 -1.4211
15209SOL    HW247622   5.102   0.791   3.800  0.0664 -0.1282  0.0248
15210SOL     OW47623   1.444   5.847   3.235  0.3579 -0.2691  0.4120
15210SOL    HW147624   1.460   5.941   3.247  0.9827 -0.5510  1.9174
15210SOL    HW247625   1.396   5.820   3.313 -1.3293 -0.8953 -0.7892
15211SOL     OW47626   1.548   6.119   8.654  0.3402  0.3169 -0.4691
15211SOL    HW147627   1.468   6.078   8.621 -0.6351  2.1619 -0.5575
15211SOL    HW247628   1.617   6.090   8.594 -0.4506 -0.4950 -1.0036
15212SOL     OW47629   4.825   7.603   2.951 -0.3422 -0.0833  0.0069
15212SOL    HW147630   4.897   7.659   2.924 -0.6157  0.2466 -0.0421
15212SOL    HW247631   4.767   7.659   3.002  0.2371 -0.7463  1.4343
15213SOL     OW47632   6.082   4.032   3.294  0.2721 -0.5710 -0.0403
15213SOL    HW147633   6.170   4.067   3.303  0.4588 -1.5080  2.2641
15213SOL    HW247634   6.093   3.955   3.238  0.8517 -0.5034 -0.0288
15214SOL     OW47635   7.306   1.803   2.298 -0.5321  0.4872 -0.4551
15214SOL    HW147636   7.214   1.827   2.304 -0.2658  1.3503  0.4468
15214SOL    HW247637   7.309   1.736   2.229 -1.5956  1.6424 -1.6919
15215SOL     OW47638   2.879   1.192   1.278 -0.4857 -0.4372 -0.1109
15215SOL    HW147639   2.974   1.194   1.287 -0.5307 -1.2648  0.6732
15215SOL    HW247640   2.853   1.285   1.275  0.2486 -0.1821  0.8631
15216SOL     OW47641   3.055   1.661   1.526  0.2843  0.5242 -0.1253
15216SOL    HW147642   3.116   1.735   1.531  1.7031 -0.6707  0.7480
15216SOL    HW247643   3.108   1.587   1.499 -0.8835 -0.4476  0.1543
15217SOL     OW47644   3.106   7.159   2.609  0.6182 -0.3081 -0.0436
15217SOL    HW147645   3.182   7.101   2.603  0.0652 -1.1783  1.0442
15217SOL    HW247646   3.121   7.225   2.541  0.9832 -2.0370 -1.7377
15218SOL     OW47647   1.409   1.545   5.138  0.4966 -0.1755 -0.2166
15218SOL    HW147648   1.381   1.602   5.210  0.7781 -0.0993 -0.1686
15218SOL    HW247649   1.356   1.466   5.148  3.3225 -1.9490  2.5426
15219SOL     OW47650   4.809   0.197   5.078 -0.6390 -0.6789 -0.2792
15219SOL    HW147651   4.750   0.265   5.112 -1.9415 -1.8133 -0.1739
15219SOL    HW247652   4.894   0.239   5.072 -1.1825  0.6274  0.8631
15220SOL     OW47653   1.344   0.968   3.712  0.2439 -0.1598 -0.6861
15220SOL    HW147654   1.352   0.901   3.645 -1.0342  0.8609 -1.9082
15220SOL    HW247655   1.412   1.032   3.691  1.3591 -0.9347  0.3877
15221SOL     OW47656   6.132   8.067   0.418  0.0691  0.2100  0.1966
15221SOL    HW147657   6.136   8.087   0.512  1.3561 -1.2105  0.4856
15221SOL    HW247658   6.076   7.989   0.413  0.2946  0.0711 -0.1736
15222SOL     OW47659   2.355   2.838   4.943  0.4279  0.0822  0.1722
15222SOL    HW147660   2.307   2.864   4.864  2.0676 -2.1815 -1.7203
15222SOL    HW247661   2.432   2.895   4.944  0.6984 -0.2671 -0.2321
15223SOL     OW47662   5.688   6.890   2.278 -0.5569  0.8163  0.2753
15223SOL    HW147663   5.775   6.850   2.274 -0.7670  0.4185 -0.5953
15223SOL    HW247664   5.643   6.840   2.347 -0.9500 -0.7728 -1.0795
15224SOL     OW47665   3.926   0.042   5.426  0.3900 -0.3384 -0.5117
15224SOL    HW147666   3.870   0.090   5.366 -0.9816  0.5709  1.3763
15224SOL    HW247667   3.866  -0.005   5.484  1.5035  0.4586  1.4172
15225SOL     OW47668   5.900   4.425   8.679 -0.2119  0.1936  0.5544
15225SOL    HW147669   5.849   4.346   8.697  1.6754 -1.7547 -1.8813
15225SOL    HW247670   5.989   4.393   8.662  1.0959  3.0745  1.2491
15226SOL     OW47671   1.407   7.881   3.320 -0.0265 -0.1381  0.5881
15226SOL    HW147672   1.406   7.927   3.235 -0.0454 -1.2762 -0.0497
15226SOL    HW247673   1.490   7.909   3.360  1.3612 -1.6763 -1.0368
15227SOL     OW47674   2.048   0.170   2.618  0.6119  0.0415  0.0301
15227SOL    HW147675   2.118   0.174   2.552 -1.4237  0.8119 -2.2463
15227SOL    HW247676   2.015   0.259   2.623 -0.2460 -0.3134  1.0202
15228SOL     OW47677   0.747   4.441   0.468  0.5486 -0.4039  0.0111
15228SOL    HW147678   0.712   4.526   0.497  1.1004 -0.3899  0.6657
15228SOL    HW247679   0.675   4.400   0.421  0.9641  1.4417 -2.4787
15229SOL     OW47680   8.139   6.625   2.184 -0.4129 -0.4579 -0.0464
15229SOL    HW147681   8.093   6.544   2.162 -1.3500 -0.2607  1.1343
15229SOL    HW247682   8.114   6.644   2.274  0.2942  0.8195 -0.0937
15230SOL     OW47683   7.924   4.644   1.984  0.5409  0.0798 -0.0799
15230SOL    HW147684   7.920   4.571   2.046 -1.8449  0.1430 -0.0728
15230SOL    HW247685   7.883   4.610   1.905 -1.3312  1.6068  0.1761
15231SOL     OW47686   0.077   2.390   7.631 -0.1513 -0.5112  0.0485
15231SOL    HW147687   0.166   2.359   7.614 -0.3584 -2.3956  1.9414
15231SOL    HW247688   0.088   2.482   7.656  1.0207 -0.2071 -1.4127
15232SOL     OW47689   7.003   6.390   1.957 -0.3188  0.3513 -0.6891
15232SOL    HW147690   7.038   6.478   1.945 -1.3867  0.9250  0.1498
15232SOL    HW247691   7.026   6.367   2.047 -1.4779  0.4761 -0.3417
15233SOL     OW47692   0.621   3.591   2.984 -0.0965 -0.1326  0.3348
15233SOL    HW147693   0.538   3.581   2.937 -0.6272  3.2127  0.2560
15233SOL    HW247694   0.686   3.606   2.914  0.1712 -0.6094  0.4789
15234SOL     OW47695   4.439   6.664   7.599  0.2735 -0.1845 -0.6350
15234SOL    HW147696   4.368   6.727   7.602  2.5950  2.6227 -0.2187
15234SOL    HW247697   4.474   6.662   7.688 -0.0262 -2.5311 -0.5030
15235SOL     OW47698   1.449   8.794   7.872 -0.4065 -0.0809  0.9136
15235SOL    HW147699   1.515   8.827   7.933  1.4382  0.0852 -1.0413
15235SOL    HW247700   1.394   8.870   7.853  2.4983  1.5577 -1.8935
15236SOL     OW47701   3.680   5.234   7.717 -0.1533 -0.1439 -0.4073
15236SOL    HW147702   3.675   5.241   7.812  1.7512 -2.1758 -0.0991
15236SOL    HW247703   3.740   5.304   7.691 -1.5584  1.1571 -0.3006
15237SOL     OW47704   7.840   4.501   0.167  0.1893  0.0705  0.0378
15237SOL    HW147705   7.836   4.415   0.209  0.8769 -0.3612 -0.7518
15237SOL    HW247706   7.886   4.485   0.085  0.9248  1.3222  0.1890
15238SOL     OW47707   5.517   3.258   5.123  0.2297  0.3490 -0.0967
15238SOL    HW147708   5.555   3.298   5.045  0.1452  0.1182 -0.2563
15238SOL    HW247709   5.428   3.291   5.126  0.2826  0.4847 -0.0083
15239SOL     OW47710   2.235   5.874   3.299  0.4717  0.5976  0.3573
15239SOL    HW147711   2.281   5.952   3.267 -1.2416  2.5041  2.2241
15239SOL    HW247712   2.157   5.868   3.244  0.1169  0.7990  0.8306
15240SOL     OW47713   3.627   4.785   0.823 -0.3017  0.8069  1.0896
15240SOL    HW147714   3.615   4.840   0.745  0.6443  0.0140  0.3623
15240SOL    HW247715   3.538   4.755   0.845 -0.2868 -2.1055 -2.0426
15241SOL     OW47716   3.583   1.309   6.502 -0.3429 -0.3183 -0.5374
15241SOL    HW147717   3.635   1.255   6.442 -1.7933 -1.6641 -0.6647
15241SOL    HW247718   3.618   1.397   6.492  0.0246 -0.6506 -2.7709
15242SOL     OW47719   1.103   3.603   0.203  0.3386 -0.0932 -0.5615
15242SOL    HW147720   1.077   3.604   0.295  0.1760 -0.0918 -0.6078
15242SOL    HW247721   1.193   3.637   0.203  0.6042 -0.7932 -0.3225
15243SOL     OW47722   4.147   7.504   5.046  0.0217 -0.2236  0.2584
15243SOL    HW147723   4.096   7.451   5.107  0.8498 -1.1899  0.1273
15243SOL    HW247724   4.227   7.524   5.093 -0.3289  1.0492  0.3561
15244SOL     OW47725   0.702   7.446   1.905  0.1160 -1.2127  0.3498
15244SOL    HW147726   0.774   7.480   1.851  0.4773 -2.2338  0.1643
15244SOL    HW247727   0.735   7.452   1.995 -0.1667 -0.2855  0.4107
15245SOL     OW47728   8.432   0.177   3.167 -0.0247  0.8933  0.2315
15245SOL    HW147729   8.407   0.122   3.093  1.0713  0.1310  0.3970
15245SOL    HW247730   8.459   0.260   3.126  2.1445 -0.0675 -0.4292
15246SOL     OW47731   0.264   5.247   4.743 -0.4335 -0.6477  0.0437
15246SOL    HW147732   0.267   5.263   4.649  2.6648  2.3163  0.4575
15246SOL    HW247733   0.313   5.165   4.754  0.2904 -0.3662 -0.8705
15247SOL     OW47734   7.743   7.154   3.064  0.2126 -0.7070 -0.2543
15247SOL    HW147735   7.650   7.169   3.085  0.1546  0.3932 -1.2293
15247SOL    HW247736   7.789   7.184   3.142 -0.1797  0.1713 -0.3459
15248SOL     OW47737   0.489   4.114   5.479 -0.4820  0.1955  0.3431
15248SOL    HW147738   0.407   4.156   5.452 -0.7547 -1.4904 -1.7555
15248SOL    HW247739   0.513   4.059   5.405  0.9069 -1.7677  2.1219
15249SOL     OW47740   5.838   6.367   6.467  0.3626  0.0047 -0.1202
15249SOL    HW147741   5.887   6.444   6.438 -0.9965  0.3021 -1.7669
15249SOL    HW247742   5.751   6.400   6.488 -0.0067 -0.9563 -0.0801
15250SOL     OW47743   7.828   6.979   0.627  0.7097 -0.9406 -0.4652
15250SOL    HW147744   7.771   6.935   0.564  1.3263 -1.3784 -0.7154
15250SOL    HW247745   7.912   6.987   0.584  0.7382  0.1105 -0.2589
15251SOL     OW47746   8.453   7.239   6.289  0.1279  0.3443  0.0915
15251SOL    HW147747   8.512   7.184   6.341  1.3067 -0.1714 -1.6847
15251SOL    HW247748   8.412   7.179   6.227 -0.4283  1.0976 -0.2842
15252SOL     OW47749   5.011   5.730   8.461 -0.0531 -0.1907  0.4445
15252SOL    HW147750   5.047   5.819   8.456  1.1942 -0.6331  1.0195
15252SOL    HW247751   4.978   5.723   8.551 -2.8999  0.6526 -0.4422
15253SOL     OW47752   3.449   5.513   2.137 -0.0844 -0.0446 -0.4231
15253SOL    HW147753   3.466   5.488   2.047  0.4480 -0.2058 -0.2790
15253SOL    HW247754   3.403   5.597   2.131  1.3284  0.7173 -0.7945
15254SOL     OW47755   7.010   8.060   0.461 -0.2308 -0.3109 -0.9058
15254SOL    HW147756   6.972   7.973   0.463 -0.6396 -0.1203  0.4286
15254SOL    HW247757   7.003   8.092   0.551 -0.2442  1.1650 -1.3968
15255SOL     OW47758   3.502   2.995   7.799 -0.2121 -0.0676 -0.5256
15255SOL    HW147759   3.514   2.998   7.894 -0.2086 -0.3751 -0.5173
15255SOL    HW247760   3.437   2.926   7.785  0.2980 -0.4977 -0.7989
15256SOL     OW47761   4.901   5.866   0.140  0.4132  0.3042 -0.1596
15256SOL    HW147762   4.853   5.785   0.119 -2.8120  1.9536  0.2172
15256SOL    HW247763   4.966   5.873   0.071 -2.1137 -0.4520 -2.8531
15257SOL     OW47764   3.695   7.210   2.122 -0.2265  0.2745  0.1025
15257SOL    HW147765   3.748   7.141   2.162  1.1562  0.5658 -1.1418
15257SOL    HW247766   3.749   7.289   2.130 -0.8129  0.7453 -0.4873
15258SOL     OW47767   4.681   4.293   4.619 -0.0915  0.0581 -0.0082
15258SOL    HW147768   4.769   4.319   4.590  0.2655  0.5752  1.4267
15258SOL    HW247769   4.691   4.276   4.713 -1.3941 -0.5362  0.0437
15259SOL     OW47770   6.774   2.710   8.128  0.0647 -0.3351  0.4080
15259SOL    HW147771   6.703   2.647   8.124 -0.3838  0.1717  0.2497
15259SOL    HW247772   6.830   2.688   8.054 -0.1234 -0.5024  0.3141
15260SOL     OW47773   2.889   3.671   7.482  0.1852  0.0033  0.4794
15260SOL    HW147774   2.917   3.616   7.409 -2.0645 -1.9049  0.9291
15260SOL    HW247775   2.847   3.746   7.440  1.4381  0.3865 -0.1454
15261SOL     OW47776   5.317   1.695   6.320  0.3520  0.4734 -0.3215
15261SOL    HW147777   5.235   1.743   6.325  0.9000  1.3809  0.2997
15261SOL    HW247778   5.295   1.605   6.344 -0.2625  0.9438  0.9083
15262SOL     OW47779   5.157   4.003   8.315  0.1120  0.3661  0.5327
15262SOL    HW147780   5.088   4.054   8.271  0.4097  0.0651 -0.3032
15262SOL    HW247781   5.236   4.021   8.264  0.4400 -0.0861  0.8771
15263SOL     OW47782   7.386   0.625   4.794  0.4710  0.0964 -0.2737
15263SOL    HW147783   7.349   0.665   4.873 -0.6701 -2.2998  0.4808
15263SOL    HW247784   7.479   0.648   4.797  0.1362  1.4649  0.8325
15264SOL     OW47785   0.108   7.053   7.206  0.1349  0.1902 -0.2289
15264SOL    HW147786   0.119   6.999   7.285  1.4243 -1.8003 -1.6846
15264SOL    HW247787   0.047   7.121   7.233  0.8790 -0.1250  2.6255
15265SOL     OW47788   3.557   0.782   3.563  0.3966 -0.0842 -0.6028
15265SOL    HW147789   3.614   0.856   3.580  0.9408 -0.7187  0.4559
15265SOL    HW247790   3.606   0.706   3.594 -0.1537 -0.8934 -1.6475
15266SOL     OW47791   2.978   6.141   5.208  0.2031 -0.1461  0.0423
15266SOL    HW147792   3.058   6.162   5.257 -0.4049  0.0588  0.9830
15266SOL    HW247793   2.914   6.122   5.276 -0.9189  1.0181 -0.6527
15267SOL     OW47794   3.826   6.410   6.297  0.0336 -0.0911 -0.4809
15267SOL    HW147795   3.747   6.367   6.331 -1.0732  1.2241 -1.2852
15267SOL    HW247796   3.877   6.431   6.374 -1.7358  1.5284  0.3107
15268SOL     OW47797   4.060   8.434   2.722 -0.5186 -0.2472 -0.5426
15268SOL    HW147798   4.010   8.372   2.775  0.3164  0.8313  1.6329
15268SOL    HW247799   4.101   8.492   2.786  1.4457  0.4792 -2.3447
15269SOL     OW47800   0.945   4.400   5.952  0.1695  0.0760  0.5963
15269SOL    HW147801   0.871   4.460   5.960  0.4974  0.6412 -0.3954
15269SOL    HW247802   0.905   4.313   5.949 -0.6200  0.4556 -1.4987
15270SOL     OW47803   4.050   7.069   5.093  0.1629  0.0005  0.1923
15270SOL    HW147804   4.005   7.014   5.156  0.1564  0.1834  0.3501
15270SOL    HW247805   3.982   7.098   5.032  0.3465 -1.0073 -0.5132
15271SOL     OW47806   1.335   3.559   3.202  0.4049  0.3245 -0.5469
15271SOL    HW147807   1.408   3.577   3.261  0.8292  0.0524 -0.9752
15271SOL    HW247808   1.299   3.476   3.234  2.5441 -1.4817 -2.4167
15272SOL     OW47809   3.575   3.286   1.703  0.0222  0.3620  0.0259
15272SOL    HW147810   3.485   3.259   1.721  0.1279  0.3086  0.4727
15272SOL    HW247811   3.566   3.374   1.666 -0.3239 -0.2624 -1.4648
15273SOL     OW47812   5.093   0.511   5.532  0.8608 -0.9618  0.5044
15273SOL    HW147813   5.142   0.504   5.450 -0.7221 -1.6263 -0.4265
15273SOL    HW247814   5.076   0.605   5.542  1.0401 -0.8798  0.0654
15274SOL     OW47815   5.354   3.586   3.305 -0.1004  0.8269 -0.2012
15274SOL    HW147816   5.420   3.575   3.236  1.1083  2.8420  0.5395
15274SOL    HW247817   5.275   3.610   3.258  0.8016  2.5614 -0.9202
15275SOL     OW47818   8.805   5.975   6.145  0.0644 -0.0992 -0.1068
15275SOL    HW147819   8.747   6.029   6.093  0.2035 -0.7027 -0.9083
15275SOL    HW247820   8.816   6.023   6.227 -3.0863 -0.8436  0.8831
15276SOL     OW47821   3.219   0.349   2.440 -0.3103  0.2050  0.0632
15276SOL    HW147822   3.306   0.333   2.475 -0.6631 -0.3740  0.7142
15276SOL    HW247823   3.223   0.319   2.349  0.2888  0.6040 -0.0437
15277SOL     OW47824   6.408   1.015   3.292 -0.1089 -0.5253 -0.5852
15277SOL    HW147825   6.428   0.967   3.372  1.0991  0.4968 -0.2423
15277SOL    HW247826   6.455   1.098   3.301  0.7903 -0.7256 -2.7227
15278SOL     OW47827   8.736   2.259   8.796  0.2621  0.4618 -0.2639
15278SOL    HW147828   8.768   2.180   8.841 -0.6655  0.4002  0.3083
15278SOL    HW247829   8.644   2.240   8.777  0.7637  0.2569 -2.7381
15279SOL     OW47830   1.721   4.018   3.311  0.7737  0.2571 -0.0405
15279SOL    HW147831   1.761   3.984   3.391 -0.0253  0.6992  0.5655
15279SOL    HW247832   1.776   3.984   3.240  0.9861 -0.8845  0.6368
15280SOL     OW47833   0.651   7.887   0.569  0.5122 -0.2007 -0.3041
15280SOL    HW147834   0.588   7.840   0.623 -0.1832  2.0428  0.9319
15280SOL    HW247835   0.604   7.905   0.487 -0.3743  1.1530  0.4775
15281SOL     OW47836   7.917   3.338   5.353 -0.4021  0.4398  0.4413
15281SOL    HW147837   7.891   3.274   5.286  1.2354  1.7798 -1.6240
15281SOL    HW247838   7.836   3.382   5.377 -1.2509 -1.0218  0.4176
15282SOL     OW47839   1.795   4.565   0.367 -0.2040 -0.1984 -0.1014
15282SOL    HW147840   1.712   4.525   0.395  0.5223 -1.3595  0.4396
15282SOL    HW247841   1.847   4.570   0.447  0.5377 -0.1718 -0.5775
15283SOL     OW47842   1.732   6.270   1.481  0.2091  0.2199  0.2751
15283SOL    HW147843   1.804   6.264   1.544 -0.5595 -0.9835  1.0761
15283SOL    HW247844   1.670   6.331   1.522  0.5945  1.0009 -0.2662
15284SOL     OW47845   0.308   4.751   8.217  0.5558 -0.0532  0.4573
15284SOL    HW147846   0.333   4.694   8.290  0.0765 -0.4376  0.3208
15284SOL    HW247847   0.295   4.837   8.258  2.2207  0.2160  0.5168
15285SOL     OW47848   8.518   1.244   1.979  0.1637 -0.2548  0.2710
15285SOL    HW147849   8.501   1.217   2.070  1.8428 -0.8964  0.4324
15285SOL    HW247850   8.559   1.168   1.939  1.5252  0.7788 -0.3701
15286SOL     OW47851   7.307   1.746   8.735  0.1578 -0.2156  0.3923
15286SOL    HW147852   7.317   1.673   8.674  1.5600  0.0211  0.3170
15286SOL    HW247853   7.328   1.708   8.820  0.2913 -0.0365  0.4374
15287SOL     OW47854   3.196   4.661   0.358 -0.6544 -0.3551  0.4233
15287SOL    HW147855   3.239   4.711   0.427  0.6316 -0.5643 -0.1931
15287SOL    HW247856   3.103   4.667   0.378 -0.6034  2.5615  0.2021
15288SOL     OW47857   5.161   3.527   6.149 -0.0963 -0.5182  0.6523
15288SOL    HW147858   5.250   3.556   6.126  0.1697 -3.0173 -2.0752
15288SOL    HW247859   5.175   3.461   6.217  0.0106 -0.0381  1.1012
15289SOL     OW47860   4.624   2.679   7.669  0.0532 -0.2578  0.0897
15289SOL    HW147861   4.574   2.659   7.590  0.6458 -2.2533  0.1871
15289SOL    HW247862   4.716   2.668   7.643  0.4042  1.3886  0.4646
15290SOL     OW47863   6.976   8.535   7.220 -0.1012 -0.0927 -0.6079
15290SOL    HW147864   6.904   8.598   7.212 -0.2240 -0.3304 -1.4053
15290SOL    HW247865   6.939   8.464   7.272 -0.3571 -0.0829 -0.7731
15291SOL     OW47866   2.834   6.760   0.468  0.1410 -0.0122  0.0902
15291SOL    HW147867   2.852   6.710   0.388  0.5765 -0.2544  0.3352
15291SOL    HW247868   2.898   6.728   0.532  0.6788  1.1127  0.1474
15292SOL     OW47869   1.231   8.280   7.225 -0.6077 -0.3543  0.9906
15292SOL    HW147870   1.215   8.362   7.272 -0.1446  0.2985  0.0365
15292SOL    HW247871   1.326   8.267   7.233 -0.1523  0.8947 -1.5109
15293SOL     OW47872   1.031   1.618   7.585 -0.1530  0.3179  0.9485
15293SOL    HW147873   1.049   1.541   7.639  0.3479  0.7224  1.3694
15293SOL    HW247874   1.114   1.634   7.539 -0.4462  0.2367  0.3800
15294SOL     OW47875   2.301   3.079   7.956  0.3024  0.1030  0.1821
15294SOL    HW147876   2.319   3.149   7.894  0.2726 -0.6537 -0.6996
15294SOL    HW247877   2.226   3.032   7.919  0.7061 -0.7622  0.4367
15295SOL     OW47878   3.134   0.690   5.844  0.3382 -0.2414  0.4645
15295SOL    HW147879   3.162   0.782   5.842 -0.2270 -0.0197  1.9704
15295SOL    HW247880   3.049   0.690   5.799 -0.4090  0.2781  1.8121
15296SOL     OW47881   2.441   4.870   3.684  0.2644  0.5696 -0.5138
15296SOL    HW147882   2.360   4.884   3.635  0.7010 -1.0042 -1.7542
15296SOL    HW247883   2.482   4.795   3.642  0.4233 -1.2630  2.6241
15297SOL     OW47884   5.840   8.878   0.991  0.4291 -0.1171  0.5259
15297SOL    HW147885   5.872   8.964   1.018  1.9714 -0.7347  0.7970
15297SOL    HW247886   5.769   8.858   1.051 -1.0888  1.6356 -0.5671
15298SOL     OW47887   2.575   0.210   1.693 -0.3287  0.8137  0.4188
15298SOL    HW147888   2.570   0.303   1.718 -5.4372  0.8605  0.3333
15298SOL    HW247889   2.585   0.212   1.598  0.5558  1.1939  0.5073
15299SOL     OW47890   3.774   4.571   7.331 -0.2221  0.9012  0.0195
15299SOL    HW147891   3.768   4.507   7.260  0.5658  1.2886 -0.4177
15299SOL    HW247892   3.693   4.622   7.324 -0.4759  0.4838 -0.1512
15300SOL     OW47893   0.946   2.706   3.973  0.3698  0.2878  0.3576
15300SOL    HW147894   1.031   2.706   4.018  0.6624  0.2828 -0.1783
15300SOL    HW247895   0.966   2.673   3.886 -0.0165  1.1882 -0.0871
15301SOL     OW47896   1.217   0.971   0.289 -0.0781 -0.4760  0.1752
15301SOL    HW147897   1.245   0.883   0.312  0.8333  0.2353  2.0551
15301SOL    HW247898   1.127   0.977   0.322 -0.1039 -0.6856  0.1385
15302SOL     OW47899   0.205   4.399   8.267 -0.1112  0.9966 -0.1279
15302SOL    HW147900   0.287   4.405   8.219 -0.1564  0.1866 -0.3153
15302SOL    HW247901   0.213   4.465   8.336  1.5423 -0.3869  1.0934
15303SOL     OW47902   7.055   6.527   3.366  0.7699 -0.7017  0.2051
15303SOL    HW147903   7.098   6.462   3.422 -0.3953  0.0712  2.1156
15303SOL    HW247904   7.127   6.580   3.332  1.4720 -0.1985  2.3111
15304SOL     OW47905   4.413   7.947   3.449  0.1632  0.2792  0.5737
15304SOL    HW147906   4.324   7.976   3.472  0.0250 -1.3806  2.3641
15304SOL    HW247907   4.406   7.919   3.357 -0.8781  1.2092  0.3528
15305SOL     OW47908   3.050   3.273   7.465  0.0570  0.1432 -0.1614
15305SOL    HW147909   2.973   3.289   7.520 -1.8242  0.8066 -2.7691
15305SOL    HW247910   3.119   3.327   7.504 -0.5334 -0.9722  2.6437
15306SOL     OW47911   5.438   0.810   8.418  0.3162 -0.4116  0.1062
15306SOL    HW147912   5.397   0.896   8.427 -3.4092 -2.0123  0.3064
15306SOL    HW247913   5.428   0.788   8.326 -0.2094 -1.2183  0.3429
15307SOL     OW47914   5.506   4.433   6.473 -0.0668 -0.2192  0.5626
15307SOL    HW147915   5.552   4.413   6.391  0.3952  2.7787 -0.0465
15307SOL    HW247916   5.531   4.363   6.533 -1.1599 -3.0503 -2.0502
15308SOL     OW47917   8.109   4.674   0.036 -0.8149 -0.8924  0.0449
15308SOL    HW147918   8.163   4.628  -0.028 -0.0171  0.2302 -0.1219
15308SOL    HW247919   8.021   4.675  -0.002 -0.3536 -0.2597 -1.0206
15309SOL     OW47920   0.764   4.390   0.103  0.5233  0.1228  0.2423
15309SOL    HW147921   0.706   4.361   0.175 -0.8887  0.0981 -0.8572
15309SOL    HW247922   0.817   4.313   0.083 -0.7078 -0.6197 -0.2720
15310SOL     OW47923   6.546   8.008   1.067  0.2654  0.1960 -0.7009
15310SOL    HW147924   6.520   8.028   1.157 -1.8112  0.1744 -1.2327
15310SOL    HW247925   6.626   7.957   1.075  1.2650  1.9228  1.0388
15311SOL     OW47926   4.503   7.058   7.540 -0.8321  0.6133 -0.3658
15311SOL    HW147927   4.471   7.073   7.451 -3.1097 -0.7861  0.1398
15311SOL    HW247928   4.447   7.111   7.596 -0.7003 -0.0017  0.3727
15312SOL     OW47929   4.157   6.823   3.998  0.3933  0.0048 -0.3384
15312SOL    HW147930   4.246   6.846   4.025  0.0300  1.4709 -0.3286
15312SOL    HW247931   4.130   6.894   3.941 -0.8581 -0.3190 -0.1691
15313SOL     OW47932   7.406   4.116   5.507  0.0262  0.1298  0.0839
15313SOL    HW147933   7.497   4.104   5.482  0.0733 -0.6837  0.6212
15313SOL    HW247934   7.367   4.164   5.434  1.1803  1.6207  0.4004
15314SOL     OW47935   2.038   3.354   2.270 -0.0007  0.2549 -0.3604
15314SOL    HW147936   1.970   3.294   2.301  0.6734 -0.7064 -0.7084
15314SOL    HW247937   1.993   3.439   2.265 -0.9611 -0.1921  0.1749
15315SOL     OW47938   2.974   8.543   2.196  0.2621 -0.6195 -0.3544
15315SOL    HW147939   3.063   8.515   2.217  0.2444 -0.8170 -0.5443
15315SOL    HW247940   2.940   8.476   2.137  0.7427  0.5157 -2.0030
15316SOL     OW47941   7.267   0.901   0.118 -0.0431 -0.4567  0.3979
15316SOL    HW147942   7.353   0.870   0.144 -0.0377  0.8795  2.1477
15316SOL    HW247943   7.274   0.997   0.119 -1.6784 -0.2978  1.2284
15317SOL     OW47944   3.627   6.311   6.846  0.2227 -0.4990 -0.2890
15317SOL    HW147945   3.582   6.287   6.765  0.1581 -1.2469 -0.0453
15317SOL    HW247946   3.580   6.263   6.914 -0.5835  1.1877  0.3740
15318SOL     OW47947   7.758   2.861   3.957 -0.6708 -0.1462 -0.4928
15318SOL    HW147948   7.814   2.798   3.911 -0.0627  0.1697 -0.1991
15318SOL    HW247949   7.819   2.921   4.000 -1.1771 -1.3962  2.1528
15319SOL     OW47950   6.904   2.368   1.316  0.7982 -0.0035  0.0138
15319SOL    HW147951   6.818   2.329   1.302  1.3378 -0.8638 -1.0293
15319SOL    HW247952   6.920   2.420   1.237  0.2289  2.1698  1.2240
15320SOL     OW47953   5.693   7.297   5.554 -0.4304 -0.7997  0.2985
15320SOL    HW147954   5.613   7.342   5.528  0.6602  0.6626 -0.7126
15320SOL    HW247955   5.727   7.349   5.627 -0.1504 -1.1128  0.3966
15321SOL     OW47956   7.094   2.404   5.952  0.5345  0.3008  0.1053
15321SOL    HW147957   7.132   2.436   5.870  0.0323 -0.1461 -0.3161
15321SOL    HW247958   7.085   2.309   5.937  1.4128  0.0455  1.0786
15322SOL     OW47959   3.943   0.361   3.226 -0.5253  0.4445 -0.1659
15322SOL    HW147960   4.017   0.311   3.259 -0.7002 -0.1307 -0.6274
15322SOL    HW247961   3.937   0.436   3.285  1.4397  1.4020 -1.0921
15323SOL     OW47962   1.220   5.616   7.816 -0.2702 -0.1822 -0.1494
15323SOL    HW147963   1.140   5.648   7.859 -0.2254 -0.8923  0.4933
15323SOL    HW247964   1.282   5.689   7.825 -0.2696 -0.2968  0.9948
15324SOL     OW47965   6.545   0.015   5.898 -0.3616 -0.4128 -0.1481
15324SOL    HW147966   6.596   0.045   5.823 -0.5582  1.4361  0.4159
15324SOL    HW247967   6.607   0.014   5.970 -0.7349  0.2872  0.1942
15325SOL     OW47968   4.136   1.100   2.862 -0.0626 -0.1115 -0.0179
15325SOL    HW147969   4.136   1.193   2.888  1.2723 -0.3066  0.7941
15325SOL    HW247970   4.221   1.087   2.821 -1.0830 -0.4970 -2.1055
15326SOL     OW47971   7.225   1.971   2.790  0.4764  0.6214  0.7463
15326SOL    HW147972   7.301   1.969   2.730  0.2175  0.4527  0.4172
15326SOL    HW247973   7.263   1.980   2.877  0.9324 -0.3267  0.6660
15327SOL     OW47974   3.144   2.066   7.090  0.4802  0.6519 -0.4155
15327SOL    HW147975   3.122   2.080   7.182 -0.3445 -0.3896 -0.4272
15327SOL    HW247976   3.156   2.153   7.054 -2.4008  1.2750 -0.0751
15328SOL     OW47977   2.754   2.458   1.554  0.0805 -0.1180  0.5161
15328SOL    HW147978   2.818   2.445   1.624  0.0439 -1.5244  0.3231
15328SOL    HW247979   2.674   2.418   1.587 -0.2877  0.3324  0.1690
15329SOL     OW47980   0.083   0.219   6.612  0.0339 -0.1735 -0.5576
15329SOL    HW147981   0.125   0.302   6.633 -1.0715  0.5111 -0.9564
15329SOL    HW247982  -0.010   0.240   6.605 -0.3477 -1.5720 -0.0548
15330SOL     OW47983   2.375   7.305   6.543  0.1863 -0.2294  0.2724
15330SOL    HW147984   2.332   7.282   6.626  0.8565 -1.7529  0.2263
15330SOL    HW247985   2.355   7.231   6.485  1.5724 -0.2432 -0.2219
15331SOL     OW47986   8.467   8.383   0.481  0.2762  0.5664 -0.0594
15331SOL    HW147987   8.472   8.293   0.449 -0.1841 -0.3759  2.2783
15331SOL    HW247988   8.386   8.417   0.444  0.5315  0.0855 -1.0918
15332SOL     OW47989   6.465   4.888   2.339  0.3598 -0.7326  0.2994
15332SOL    HW147990   6.465   4.810   2.395  1.5369 -0.3348  0.8849
15332SOL    HW247991   6.533   4.944   2.376 -0.1659  0.3802 -0.3917
15333SOL     OW47992   5.413   2.802   0.241  0.5412 -0.6979 -0.3884
15333SOL    HW147993   5.336   2.849   0.273 -0.0438 -0.0466 -2.6251
15333SOL    HW247994   5.401   2.712   0.271 -0.9560 -0.5568 -0.5138
15334SOL     OW47995   0.842   5.734   2.166  0.1813  0.4053 -0.3255
15334SOL    HW147996   0.904   5.794   2.208 -1.0653  2.4891 -1.2751
15334SOL    HW247997   0.885   5.711   2.083  0.9284 -0.5318  0.3077
15335SOL     OW47998   5.709   8.121   1.634  0.5754  0.0828  0.8049
15335SOL    HW147999   5.768   8.190   1.662 -0.5798  1.2479  0.4944
15335SOL    HW248000   5.724   8.112   1.540 -0.0820  0.7643  0.6203
15336SOL     OW48001   6.354   1.578   8.393  0.0483 -0.5511  0.2635
15336SOL    HW148002   6.413   1.622   8.454 -0.6120  1.5585 -0.5170
15336SOL    HW248003   6.271   1.571   8.441 -0.4603  1.0751 -0.2927
15337SOL     OW48004   3.621   5.867   7.567 -0.1776 -0.0789 -0.2361
15337SOL    HW148005   3.668   5.946   7.542 -0.2659 -0.1641 -0.6725
15337SOL    HW248006   3.593   5.883   7.657 -0.5749  0.5668 -0.4753
15338SOL     OW48007   5.785   6.970   6.223  0.3208 -0.4632  0.2015
15338SOL    HW148008   5.736   6.970   6.305  0.3136 -2.9403  0.2695
15338SOL    HW248009   5.777   6.880   6.190  0.3570  0.4215 -2.5078
15339SOL     OW48010   2.864   8.619   3.124  0.7148 -0.2706  0.3583
15339SOL    HW148011   2.896   8.604   3.036 -0.0680  0.1544 -0.0139
15339SOL    HW248012   2.891   8.709   3.145 -0.5679  0.2749 -0.1480
15340SOL     OW48013   2.469   3.500   1.834 -0.0919  0.0795  0.0572
15340SOL    HW148014   2.403   3.565   1.810 -1.7732 -1.5012  0.0908
15340SOL    HW248015   2.477   3.509   1.929 -2.3021 -1.4049  0.4638
15341SOL     OW48016   4.456   7.504   1.531  0.2116 -0.1360  0.5293
15341SOL    HW148017   4.369   7.524   1.564  0.4537  1.8319  0.0997
15341SOL    HW248018   4.515   7.546   1.593  0.7478  0.8957 -0.6205
15342SOL     OW48019   0.342   5.479   3.291 -0.3595 -0.0792  0.0837
15342SOL    HW148020   0.399   5.477   3.368  0.3884  1.3403 -0.4010
15342SOL    HW248021   0.268   5.533   3.316  0.1410  0.8209 -0.3458
15343SOL     OW48022   8.421   6.573   2.930 -0.1489  0.1499  0.3656
15343SOL    HW148023   8.488   6.638   2.949  0.2313 -0.0802 -0.1429
15343SOL    HW248024   8.342   6.624   2.911 -0.2613  0.4081  1.4539
15344SOL     OW48025   2.679   3.346   2.219  0.1670  0.1764  0.0385
15344SOL    HW148026   2.693   3.317   2.129 -1.7756 -0.3013 -0.1556
15344SOL    HW248027   2.746   3.299   2.270  0.0199 -1.0964 -0.8949
15345SOL     OW48028   2.238   0.983   7.502  0.4558  0.5933  0.3562
15345SOL    HW148029   2.189   1.049   7.550  0.4016 -0.7658  2.3203
15345SOL    HW248030   2.194   0.977   7.417  0.9864  3.5910 -0.2114
15346SOL     OW48031   0.277   6.836   8.761 -0.0507 -0.5913 -0.0436
15346SOL    HW148032   0.292   6.912   8.818  1.8565 -0.3243 -0.8091
15346SOL    HW248033   0.205   6.788   8.803  0.2486  0.4126  1.7368
15347SOL     OW48034   3.017   1.865   7.776  0.0194 -0.1857 -0.5262
15347SOL    HW148035   2.958   1.807   7.825  0.7795 -1.5866 -1.2128
15347SOL    HW248036   3.029   1.822   7.692 -0.3132  1.5881 -1.5333
15348SOL     OW48037   3.563   3.684   0.061 -0.8577 -0.7829 -0.1220
15348SOL    HW148038   3.583   3.689   0.154  0.3182  0.2988 -0.4006
15348SOL    HW248039   3.647   3.665   0.019 -0.9858  0.6538 -1.1000
15349SOL     OW48040   1.283   5.421   8.574 -0.2259 -0.1684  0.3710
15349SOL    HW148041   1.242   5.415   8.488  0.3950  2.4596 -0.2215
15349SOL    HW248042   1.376   5.436   8.555 -0.3197  2.0886  1.3780
15350SOL     OW48043   6.490   2.222   7.520  0.2331  0.0349  0.2160
15350SOL    HW148044   6.477   2.180   7.435  0.9220 -0.8439  0.5333
15350SOL    HW248045   6.546   2.162   7.569  0.3475  0.8139  1.0818
15351SOL     OW48046   4.771   0.835   3.924  0.2948  0.1858 -0.7429
15351SOL    HW148047   4.742   0.807   4.010 -0.2418  1.4874 -0.4695
15351SOL    HW248048   4.863   0.810   3.919  0.5676  0.8764  0.5599
15352SOL     OW48049   5.013   3.759   6.021 -0.2825 -0.4552 -0.3014
15352SOL    HW148050   4.968   3.736   5.940  0.1022 -0.9904 -0.3645
15352SOL    HW248051   5.061   3.839   5.999  0.4647 -1.0392 -0.8431
15353SOL     OW48052   2.862   4.944   5.940  0.3962 -0.3308  0.0850
15353SOL    HW148053   2.795   4.878   5.926 -0.7109  0.8474 -0.3526
15353SOL    HW248054   2.891   4.930   6.030 -1.9015  0.3884  1.0197
15354SOL     OW48055   0.680   1.225   2.061  0.3844  1.0402 -0.2248
15354SOL    HW148056   0.734   1.158   2.019  0.6048  1.7108 -1.0311
15354SOL    HW248057   0.742   1.277   2.113  0.0905  0.1084  1.1161
15355SOL     OW48058   4.448   5.602   5.349  0.0035 -0.1559  0.3074
15355SOL    HW148059   4.523   5.638   5.301 -0.1231  0.9513  0.8872
15355SOL    HW248060   4.380   5.669   5.341 -1.0006 -1.2216 -0.3547
15356SOL     OW48061   4.733   6.505   6.789 -0.0456  0.5959  0.0046
15356SOL    HW148062   4.710   6.598   6.794 -1.3219  0.2748  0.6258
15356SOL    HW248063   4.718   6.482   6.697  0.2331  0.9923 -0.1431
15357SOL     OW48064   4.623   1.082   7.279 -0.6344 -0.8351 -0.1775
15357SOL    HW148065   4.662   0.995   7.268 -1.1569 -1.0849 -0.0723
15357SOL    HW248066   4.696   1.138   7.305 -0.0871 -1.0172 -1.2520
15358SOL     OW48067   4.253   0.004   3.378  0.3057  0.0839 -0.1651
15358SOL    HW148068   4.315  -0.069   3.380 -1.1272 -1.1642  0.6408
15358SOL    HW248069   4.242   0.024   3.285 -0.2155 -1.5984 -0.4939
15359SOL     OW48070   6.749   3.606   3.754  0.1154 -0.5195  0.4355
15359SOL    HW148071   6.743   3.700   3.772 -0.0376 -0.6439  1.0513
15359SOL    HW248072   6.770   3.567   3.839  0.0388 -1.0564  0.2078
15360SOL     OW48073   8.647   3.810   2.815 -0.7284 -0.1881  0.2690
15360SOL    HW148074   8.553   3.800   2.831 -0.5129 -1.9459  0.7059
15360SOL    HW248075   8.686   3.729   2.851  1.0623  0.9509  1.0584
15361SOL     OW48076   6.382   3.294   0.929 -1.1037 -0.1750 -0.0285
15361SOL    HW148077   6.382   3.227   0.998  0.9693 -1.5385 -1.2274
15361SOL    HW248078   6.455   3.351   0.951 -1.1368  0.0485 -0.5018
15362SOL     OW48079   1.334   6.514   5.674 -0.1433  0.4085  0.2344
15362SOL    HW148080   1.324   6.420   5.660 -1.0425  0.5564 -0.2171
15362SOL    HW248081   1.246   6.543   5.700  0.0048  1.2015 -0.1283
15363SOL     OW48082   0.533   2.198   0.706  0.5686  0.1998  0.2598
15363SOL    HW148083   0.510   2.146   0.628  0.6470  0.0881  0.3117
15363SOL    HW248084   0.535   2.288   0.674 -1.6562  0.4374  0.6026
15364SOL     OW48085   6.552   3.384   6.524 -0.2125  0.2153 -0.3333
15364SOL    HW148086   6.522   3.400   6.614  2.4262 -2.0296  1.1192
15364SOL    HW248087   6.585   3.294   6.526  1.2722  0.5920 -3.1875
15365SOL     OW48088   0.343   3.975   6.671 -0.1833  0.0843  0.7642
15365SOL    HW148089   0.328   3.935   6.585 -2.2459 -0.3021  1.2465
15365SOL    HW248090   0.347   4.069   6.653 -1.3070  0.0617  0.3006
15366SOL     OW48091   3.627   6.613   7.721 -0.7261  0.4596  0.4063
15366SOL    HW148092   3.651   6.520   7.731 -0.0396  0.4906 -0.7926
15366SOL    HW248093   3.550   6.611   7.664  1.9197  0.7422 -3.6081
15367SOL     OW48094   6.938   1.286   5.202  0.0257 -0.2164 -0.3688
15367SOL    HW148095   6.905   1.347   5.268 -0.1672 -0.8270  0.1084
15367SOL    HW248096   6.909   1.323   5.119 -1.6622 -0.5828  0.0186
15368SOL     OW48097   3.521   6.556   5.993  0.0833  0.6839 -0.3454
15368SOL    HW148098   3.512   6.523   5.904  1.3775  2.0457 -1.0168
15368SOL    HW248099   3.520   6.477   6.047  0.6317 -0.2816 -1.6790
15369SOL     OW48100   4.862   7.656   0.964 -0.3095 -0.0218 -0.4988
15369SOL    HW148101   4.814   7.634   1.044 -0.2213 -1.2714 -0.7764
15369SOL    HW248102   4.943   7.698   0.995 -0.8635  0.7040  0.0106
15370SOL     OW48103   1.575   7.607   4.476  0.2265 -0.3077  0.2807
15370SOL    HW148104   1.528   7.616   4.559 -0.0479 -0.9695  0.2064
15370SOL    HW248105   1.510   7.573   4.415 -0.2609  2.5093 -0.8931
15371SOL     OW48106   2.096   5.331   6.622 -0.3962  0.1624 -0.0636
15371SOL    HW148107   2.038   5.256   6.640  0.7849 -1.1448 -1.4526
15371SOL    HW248108   2.182   5.302   6.651 -0.4076  2.3424  2.6284
15372SOL     OW48109   7.651   1.281   2.808 -0.1502  0.5233  0.0892
15372SOL    HW148110   7.711   1.289   2.882 -0.9719 -1.8139  1.0880
15372SOL    HW248111   7.585   1.218   2.837 -1.0584  0.2825 -2.2773
15373SOL     OW48112   6.840   4.673   8.729 -0.2778 -0.1920  0.4216
15373SOL    HW148113   6.871   4.728   8.801 -1.2018 -1.7853  2.1519
15373SOL    HW248114   6.916   4.660   8.673  0.9899 -0.3501  2.1077
15374SOL     OW48115   6.155   4.325   6.494  0.0007  0.3172  0.0865
15374SOL    HW148116   6.069   4.363   6.513 -0.7096  0.2295 -2.5336
15374SOL    HW248117   6.215   4.399   6.500 -0.8921  1.2885 -1.7623
15375SOL     OW48118   0.141   4.388   7.262 -0.3305 -0.1245 -0.0354
15375SOL    HW148119   0.200   4.462   7.251  0.0431 -0.3197  0.5535
15375SOL    HW248120   0.198   4.317   7.293 -0.4890 -0.9694 -1.6066
15376SOL     OW48121   7.646   3.091   0.248 -0.0825  0.3680 -0.4299
15376SOL    HW148122   7.581   3.160   0.255  0.5570  1.0319 -0.8230
15376SOL    HW248123   7.725   3.136   0.218  0.8942 -0.2238  1.1715
15377SOL     OW48124   6.228   1.455   5.713 -0.2460 -0.0622 -0.5517
15377SOL    HW148125   6.198   1.364   5.717 -0.4288 -0.0081 -0.7240
15377SOL    HW248126   6.197   1.487   5.629 -1.2956  0.5514  0.0505
15378SOL     OW48127   8.743   5.096   1.688 -0.1005 -0.6583 -0.1972
15378SOL    HW148128   8.689   5.111   1.611  1.2711 -0.5425 -1.1749
15378SOL    HW248129   8.832   5.120   1.660  0.3038  0.2164  1.6798
15379SOL     OW48130   2.916   2.821   2.373 -0.1217 -0.8940  0.0648
15379SOL    HW148131   2.955   2.819   2.286  1.0725 -1.4504  0.5949
15379SOL    HW248132   2.977   2.772   2.428 -0.0618  0.7426  1.5354
15380SOL     OW48133   7.191   0.705   1.558  0.6383 -0.3606 -0.4373
15380SOL    HW148134   7.274   0.661   1.576  0.2416 -0.5105  1.2013
15380SOL    HW248135   7.124   0.645   1.591 -0.3224 -1.1537 -3.4665
15381SOL     OW48136   3.764   8.540   6.009  0.2095 -0.0322 -0.5967
15381SOL    HW148137   3.759   8.626   6.052 -0.1204 -1.1419  1.7618
15381SOL    HW248138   3.727   8.555   5.922  1.4298  2.4974 -0.7802
15382SOL     OW48139   6.639   4.460   6.579 -0.6192  0.4494  0.0663
15382SOL    HW148140   6.698   4.393   6.546 -1.3076  0.2032 -0.6697
15382SOL    HW248141   6.694   4.512   6.638  0.4431  0.4690 -0.9034
15383SOL     OW48142   4.682   2.917   3.133  0.6804 -0.2434  0.2183
15383SOL    HW148143   4.767   2.884   3.106  0.6363  0.3720 -0.7106
15383SOL    HW248144   4.684   3.011   3.111  0.0214 -0.0762  0.8250
15384SOL     OW48145   4.082   5.998   0.032  0.5583 -0.0582 -0.0030
15384SOL    HW148146   4.008   6.054   0.055 -0.0974 -0.1626 -1.6808
15384SOL    HW248147   4.043   5.913   0.014  0.9604  0.0287 -1.4510
15385SOL     OW48148   6.301   8.263   6.802  0.3756  0.7201 -0.0089
15385SOL    HW148149   6.258   8.345   6.826  0.2755  0.7249 -0.2047
15385SOL    HW248150   6.391   8.273   6.834  0.1663  0.6074  0.6278
15386SOL     OW48151   1.750   5.834   1.408 -0.4623  0.5868 -0.0062
15386SOL    HW148152   1.722   5.745   1.389 -1.2038  0.6143  0.8776
15386SOL    HW248153   1.840   5.839   1.375 -1.0328  0.0943 -1.7527
15387SOL     OW48154   3.582   3.422   6.433 -0.0626  0.0183 -0.0492
15387SOL    HW148155   3.657   3.455   6.484 -0.9966  1.7702  0.2804
15387SOL    HW248156   3.551   3.346   6.482 -0.5537  1.2929  1.7361
15388SOL     OW48157   6.037   6.581   4.885  0.3252  0.1878 -0.2254
15388SOL    HW148158   6.076   6.514   4.940 -1.0005  0.5075  1.1867
15388SOL    HW248159   5.986   6.532   4.820  0.2655 -0.1923  0.1050
15389SOL     OW48160   3.694   6.510   1.485  0.0675  0.1870 -0.0731
15389SOL    HW148161   3.759   6.567   1.444  0.6681 -0.5429 -0.1597
15389SOL    HW248162   3.677   6.551   1.570 -0.9459  1.5303 -0.8802
15390SOL     OW48163   8.306   6.650   5.671 -0.1470  0.2094 -0.1215
15390SOL    HW148164   8.273   6.630   5.584  1.6295  0.1050 -0.8122
15390SOL    HW248165   8.379   6.590   5.684  0.7958  1.4574  0.6680
15391SOL     OW48166   3.749   5.971   4.818 -0.1191  0.6884 -0.0807
15391SOL    HW148167   3.724   6.033   4.887  1.1421 -0.5272  1.5618
15391SOL    HW248168   3.779   6.026   4.746  0.9550  2.0265  1.3109
15392SOL     OW48169   5.169   3.111   8.109 -0.0231  0.0848  0.5208
15392SOL    HW148170   5.093   3.138   8.058  0.2449 -1.1177 -0.5721
15392SOL    HW248171   5.226   3.068   8.046  0.5003 -1.1418  1.7791
15393SOL     OW48172   3.375   7.231   2.758  0.3766 -0.0167 -0.6759
15393SOL    HW148173   3.380   7.135   2.756  1.4990 -0.0632  1.2863
15393SOL    HW248174   3.297   7.249   2.810  0.8975  0.0800  0.0946
15394SOL     OW48175   0.362   7.099   6.215  0.6592  0.0702 -0.1013
15394SOL    HW148176   0.272   7.120   6.190  0.9267  1.1158 -0.2706
15394SOL    HW248177   0.370   7.128   6.306  0.9845  0.5400 -0.2737
15395SOL     OW48178   8.429   8.136   6.568  0.6484  0.0480  0.6139
15395SOL    HW148179   8.502   8.198   6.575  0.2007  0.7803 -0.7380
15395SOL    HW248180   8.380   8.146   6.649 -0.1322  2.4388 -0.0758
15396SOL     OW48181   3.456   5.015   6.239  0.1707 -0.1146 -0.3853
15396SOL    HW148182   3.450   4.960   6.317  1.9854  1.5280  1.0362
15396SOL    HW248183   3.499   4.959   6.174  0.4149 -0.9220  0.4414
15397SOL     OW48184   2.460   0.888   2.632  0.2617  0.0119 -0.3409
15397SOL    HW148185   2.497   0.800   2.622  0.6947  0.2399 -0.8243
15397SOL    HW248186   2.435   0.894   2.724 -3.7444 -2.1780 -1.0388
15398SOL     OW48187   8.370   3.970   8.679 -0.3104 -0.0272  0.4102
15398SOL    HW148188   8.445   3.968   8.739  0.4656  0.9491 -0.4911
15398SOL    HW248189   8.323   4.050   8.703 -1.7760 -1.2345  1.7651
15399SOL     OW48190   8.424   0.550   4.244  0.0103 -0.3273  0.1483
15399SOL    HW148191   8.423   0.574   4.152  1.7896  0.3241  0.2525
15399SOL    HW248192   8.348   0.594   4.282 -0.7224 -0.5759 -0.9703
15400SOL     OW48193   7.853   0.154   5.033 -0.0655  0.0802  0.0514
15400SOL    HW148194   7.852   0.059   5.021 -0.3078  0.3461 -2.4038
15400SOL    HW248195   7.761   0.180   5.029  0.0588  0.5072 -0.0045
15401SOL     OW48196   7.445   5.511   4.155  0.3252 -0.5182  0.1597
15401SOL    HW148197   7.384   5.584   4.154 -1.4737 -1.9503 -0.6774
15401SOL    HW248198   7.471   5.503   4.247 -1.4382 -0.3746  0.7084
15402SOL     OW48199   3.074   6.444   5.419 -0.0884 -0.0268 -0.1613
15402SOL    HW148200   3.020   6.396   5.482  0.2571 -0.3789 -0.1301
15402SOL    HW248201   3.160   6.402   5.424  0.1330  0.3955 -0.3616
15403SOL     OW48202   7.095   2.395   0.418  0.1300 -0.1129  0.3420
15403SOL    HW148203   7.003   2.414   0.436  0.5871  2.4349  0.4183
15403SOL    HW248204   7.093   2.324   0.354 -1.7963 -1.2971  1.5926
15404SOL     OW48205   7.112   6.615   1.880  0.2220  0.6192 -0.4519
15404SOL    HW148206   7.206   6.617   1.864  0.3571 -2.3545 -0.4703
15404SOL    HW248207   7.073   6.605   1.793  0.2784 -3.1369 -0.2078
15405SOL     OW48208   4.279   1.802   6.072 -0.1039  0.3754 -0.2308
15405SOL    HW148209   4.255   1.879   6.021 -0.5303 -0.0094 -0.6220
15405SOL    HW248210   4.367   1.821   6.105 -0.7473  1.6207  0.8492
15406SOL     OW48211   5.249   7.194   4.907 -0.1303  0.3726 -0.6217
15406SOL    HW148212   5.300   7.188   4.826 -3.1515 -0.3024 -2.6311
15406SOL    HW248213   5.268   7.282   4.940  2.1788  0.1960 -1.2686
15407SOL     OW48214   7.554   6.180   4.448 -0.0513  0.2629 -0.2908
15407SOL    HW148215   7.636   6.223   4.423  0.8302  0.3846  2.4190
15407SOL    HW248216   7.549   6.193   4.543 -3.8004  1.1977 -0.4861
15408SOL     OW48217   0.527   0.913   3.599  0.3756  0.1855  0.3657
15408SOL    HW148218   0.533   1.003   3.631  2.0631  0.2191  0.0575
15408SOL    HW248219   0.453   0.914   3.539  0.0526  1.2499  0.7566
15409SOL     OW48220   2.401   1.234   8.325 -0.1312 -0.3236  0.0128
15409SOL    HW148221   2.393   1.328   8.306 -0.7349 -0.2241  0.7143
15409SOL    HW248222   2.413   1.193   8.239  1.3048  0.4998 -0.2120
15410SOL     OW48223   5.309   5.810   8.639  0.4464 -0.3152 -0.4023
15410SOL    HW148224   5.368   5.831   8.712  1.3089 -0.2974 -1.0950
15410SOL    HW248225   5.236   5.871   8.650  0.8614  0.1090  0.0955
15411SOL     OW48226   8.022   1.787   8.166 -0.3365 -0.5197  0.1575
15411SOL    HW148227   7.983   1.709   8.128 -0.7281  0.2927 -1.2054
15411SOL    HW248228   8.115   1.766   8.175 -0.5446 -1.3517  0.4151
15412SOL     OW48229   8.111   7.944   6.001  0.6871  0.0120 -0.0577
15412SOL    HW148230   8.065   7.926   5.919 -1.3440  0.2270  0.9704
15412SOL    HW248231   8.189   7.888   5.998  0.2535 -0.5660 -1.7656
15413SOL     OW48232   1.666   4.335   0.709  0.0601 -0.3978  0.4449
15413SOL    HW148233   1.629   4.420   0.686  1.2003  0.7153  2.4967
15413SOL    HW248234   1.696   4.345   0.799  0.2206 -2.9943  0.7547
15414SOL     OW48235   2.815   8.267   2.633  0.2018  0.0961 -0.0647
15414SOL    HW148236   2.782   8.239   2.548 -1.6357  0.7814  0.3831
15414SOL    HW248237   2.767   8.213   2.697  0.4970  0.5960  0.5903
15415SOL     OW48238   1.061   1.920   1.150 -0.0886 -0.2184  0.0726
15415SOL    HW148239   1.054   2.010   1.179  0.2269  0.3615 -1.5548
15415SOL    HW248240   1.155   1.901   1.152 -0.2390 -0.9412  1.5735
15416SOL     OW48241   8.648   8.060   3.615  0.2951  0.1561 -0.1204
15416SOL    HW148242   8.556   8.083   3.604 -0.2999 -2.4618 -1.6070
15416SOL    HW248243   8.685   8.065   3.527  1.8547  1.9629  0.5697
15417SOL     OW48244   1.517   3.715   6.207 -0.0624  0.2684 -0.1076
15417SOL    HW148245   1.430   3.723   6.247  0.5127  1.2436  1.0060
15417SOL    HW248246   1.576   3.757   6.270  1.2155 -0.3491 -0.8600
15418SOL     OW48247   6.925   3.887   5.188 -0.4258 -0.0060 -0.0566
15418SOL    HW148248   6.842   3.933   5.175  0.2140  0.7104 -1.9189
15418SOL    HW248249   6.928   3.822   5.119  0.3915 -0.2948  0.2421
15419SOL     OW48250   3.167   8.260   4.701 -0.3439 -1.0201 -0.1208
15419SOL    HW148251   3.200   8.350   4.711  0.3848 -1.3301  0.3458
15419SOL    HW248252   3.074   8.271   4.678 -0.5583 -0.1568  1.0653
15420SOL     OW48253   6.265   8.015   3.128 -0.3789 -0.0141  0.6610
15420SOL    HW148254   6.228   7.936   3.167 -0.4007  0.4968  1.7111
15420SOL    HW248255   6.330   8.045   3.191  1.4235 -0.5320 -0.8386
15421SOL     OW48256   7.395   6.360   4.308 -0.2940 -0.8076 -0.2123
15421SOL    HW148257   7.391   6.304   4.231  1.4298 -2.7032  0.9881
15421SOL    HW248258   7.422   6.302   4.379 -0.2803  1.1887  1.5150
15422SOL     OW48259   8.000   8.207   7.413 -0.4678 -0.1421 -0.1073
15422SOL    HW148260   8.054   8.278   7.379  1.2917  0.5279  3.5690
15422SOL    HW248261   7.923   8.251   7.449  0.1799 -0.1253  1.3336
15423SOL     OW48262   5.721   3.690   4.639  0.3184  0.0465 -0.1604
15423SOL    HW148263   5.703   3.596   4.651 -2.2663  0.7129  2.3302
15423SOL    HW248264   5.815   3.695   4.626  0.3827 -2.9838 -1.8119
15424SOL     OW48265   2.727   5.090   8.214 -0.3127 -0.2163 -1.1699
15424SOL    HW148266   2.663   5.101   8.143  0.5637  0.9736 -1.8113
15424SOL    HW248267   2.784   5.166   8.206 -1.1174  0.8420  1.8460
15425SOL     OW48268   4.102   8.396   1.708  0.4931 -0.5655 -0.1206
15425SOL    HW148269   4.129   8.432   1.793 -1.3455 -0.5277  0.4869
15425SOL    HW248270   4.065   8.471   1.662  2.3601 -0.3651 -1.4012
15426SOL     OW48271   2.186   8.117   0.055 -0.5001  0.2110  0.2162
15426SOL    HW148272   2.271   8.159   0.070 -0.3378  0.6477 -1.6694
15426SOL    HW248273   2.134   8.141   0.131  0.5201  1.4159  0.5667
15427SOL     OW48274   1.608   0.029   3.701 -0.2358 -0.4024 -0.2968
15427SOL    HW148275   1.548  -0.035   3.740 -1.2634  0.0917 -1.0014
15427SOL    HW248276   1.555   0.074   3.635  0.6732  0.6612 -0.3382
15428SOL     OW48277   4.153   1.373   8.013 -0.1362  0.0825  1.0375
15428SOL    HW148278   4.076   1.352   8.065 -1.6431 -1.6565 -1.6261
15428SOL    HW248279   4.152   1.469   8.006 -1.4488  0.1645  1.9156
15429SOL     OW48280   7.422   2.644   0.949  0.5852 -0.1251  0.7162
15429SOL    HW148281   7.479   2.631   1.025 -0.9057 -1.8170  1.5935
15429SOL    HW248282   7.392   2.735   0.956  1.1749  0.0055  1.6303
15430SOL     OW48283   7.140   0.713   3.761 -0.3041  0.1866 -0.1093
15430SOL    HW148284   7.152   0.636   3.816  0.7988  0.0730 -0.4900
15430SOL    HW248285   7.126   0.679   3.673  1.6517  0.4052 -0.5506
15431SOL     OW48286   7.212   7.950   2.112  0.2322 -0.0759 -0.0327
15431SOL    HW148287   7.272   7.891   2.158 -0.5119 -0.8731 -0.0451
15431SOL    HW248288   7.163   7.994   2.182 -1.1603 -1.5622 -0.0115
15432SOL     OW48289   7.762   4.647   8.407  0.2809  0.6392  0.2531
15432SOL    HW148290   7.834   4.709   8.417  0.4829  0.0883  3.1805
15432SOL    HW248291   7.798   4.575   8.355  0.9710  1.5768 -0.5983
15433SOL     OW48292   1.390   6.809   3.033  0.1061  0.7496 -0.3167
15433SOL    HW148293   1.374   6.753   3.110  0.5840  0.9946 -0.0339
15433SOL    HW248294   1.354   6.894   3.058 -1.7497  0.2859 -1.2135
15434SOL     OW48295   0.583   6.304   3.815 -0.3192  0.2054  0.8999
15434SOL    HW148296   0.526   6.367   3.859  0.5444  1.2054  0.6287
15434SOL    HW248297   0.531   6.273   3.741 -2.0260 -1.9716  2.8894
15435SOL     OW48298   3.308   4.778   2.024  0.0240  0.0745  0.2928
15435SOL    HW148299   3.243   4.718   2.060  0.9757 -0.7210  0.7495
15435SOL    HW248300   3.360   4.805   2.100 -1.0834  2.4243  0.2994
15436SOL     OW48301   1.446   1.614   4.863 -0.1518 -0.2899 -0.5758
15436SOL    HW148302   1.418   1.566   4.941 -0.2178 -1.5279 -1.3221
15436SOL    HW248303   1.490   1.692   4.897 -1.1728 -0.2251  0.6705
15437SOL     OW48304   1.539   4.193   5.191 -0.6610  0.3476 -0.2610
15437SOL    HW148305   1.617   4.247   5.205 -0.4808  0.0166  0.0434
15437SOL    HW248306   1.482   4.213   5.266  0.9248 -2.5209  1.9328
15438SOL     OW48307   7.688   8.481   1.979  0.4712 -0.0212 -0.1700
15438SOL    HW148308   7.776   8.474   1.943  0.7274 -1.2655  0.6072
15438SOL    HW248309   7.683   8.409   2.042 -1.1120  0.0053 -0.2289
15439SOL     OW48310   6.376   5.540   6.896  0.0213 -0.4207 -0.9852
15439SOL    HW148311   6.282   5.548   6.877  0.1595 -1.3975 -2.1761
15439SOL    HW248312   6.401   5.456   6.858  1.0590 -0.9295  0.7297
15440SOL     OW48313   7.118   3.245   3.711  0.0176  0.9705 -0.5721
15440SOL    HW148314   7.180   3.309   3.745  1.1937 -0.3377 -0.1636
15440SOL    HW248315   7.070   3.292   3.643  1.4423  2.0215 -0.8930
15441SOL     OW48316   5.330   7.692   0.741 -0.3726 -0.4560 -0.3742
15441SOL    HW148317   5.364   7.622   0.686 -0.4748 -1.3672  0.6863
15441SOL    HW248318   5.408   7.735   0.776 -0.2406  1.6030 -2.9406
15442SOL     OW48319   2.408   3.742   0.584 -0.3621  0.1339 -0.0040
15442SOL    HW148320   2.355   3.731   0.663 -0.9413  1.2946 -0.2038
15442SOL    HW248321   2.424   3.653   0.553  1.5157 -0.4924  2.4476
15443SOL     OW48322   1.811   6.030   5.336 -0.1446 -0.2877  0.7841
15443SOL    HW148323   1.820   5.949   5.386  0.0583 -1.7283 -1.4514
15443SOL    HW248324   1.899   6.068   5.334  0.0614 -0.7702  0.6384
15444SOL     OW48325   3.054   5.211   4.971  0.1726 -0.0676 -0.3439
15444SOL    HW148326   3.130   5.265   4.994 -0.6585  1.9686 -2.0853
15444SOL    HW248327   2.985   5.241   5.030  0.3916 -1.2250  0.5530
15445SOL     OW48328   2.856   4.425   4.388 -0.2007  0.1887 -0.3364
15445SOL    HW148329   2.849   4.350   4.448 -0.8998  0.5823  0.0952
15445SOL    HW248330   2.946   4.455   4.398 -0.1395 -0.1188  0.0821
15446SOL     OW48331   3.720   4.974   8.016 -0.0912  0.5955 -0.1695
15446SOL    HW148332   3.759   4.960   7.930 -0.7958  1.8389 -0.7184
15446SOL    HW248333   3.794   4.973   8.077  0.4377 -0.0529 -0.8160
15447SOL     OW48334   2.093   5.692   2.046 -0.3814 -0.0049  0.4887
15447SOL    HW148335   2.089   5.601   2.017 -2.1874  0.0162  0.5491
15447SOL    HW248336   2.078   5.688   2.141  0.1425  0.3103  0.5867
15448SOL     OW48337   5.251   1.154   6.341  0.4737  0.0738 -0.4700
15448SOL    HW148338   5.238   1.083   6.279  1.2580  0.1438 -0.7209
15448SOL    HW248339   5.238   1.113   6.427 -0.8308  0.0249 -0.6676
15449SOL     OW48340   0.221   8.454   1.013 -0.0925  0.1027  0.8298
15449SOL    HW148341   0.194   8.535   1.056  0.1318 -0.6702  2.4839
15449SOL    HW248342   0.305   8.475   0.973  0.4395  0.4374  2.0797
15450SOL     OW48343   2.961   0.527   3.617 -0.2648  0.1314  0.2701
15450SOL    HW148344   2.865   0.524   3.610 -0.2736 -0.3284  0.5246
15450SOL    HW248345   2.983   0.453   3.673  0.4276 -1.2508 -1.6906
15451SOL     OW48346   0.788   4.009   7.976  0.0272 -0.0509  0.2590
15451SOL    HW148347   0.751   3.960   7.903  2.0616 -0.3764 -0.6448
15451SOL    HW248348   0.820   3.942   8.036  1.0078  0.1527 -0.0109
15452SOL     OW48349   3.291   3.192   1.086 -0.2043  0.3190 -0.0626
15452SOL    HW148350   3.280   3.176   1.179 -1.4522 -1.9478 -0.5163
15452SOL    HW248351   3.282   3.287   1.076  0.1870  0.6199  2.1241
15453SOL     OW48352   0.583   2.845   8.281 -0.5654 -0.3400 -1.0367
15453SOL    HW148353   0.525   2.778   8.318  0.7160 -1.5433 -1.1520
15453SOL    HW248354   0.667   2.831   8.324  0.2102  0.0377 -2.3627
15454SOL     OW48355   2.017   3.156   0.103  0.1670 -0.1715 -0.2715
15454SOL    HW148356   2.027   3.200   0.187  1.7564 -0.4424 -0.2705
15454SOL    HW248357   2.060   3.071   0.116 -0.8226 -0.7928 -0.9484
15455SOL     OW48358   5.522   3.845   7.675 -0.6788 -0.7981  1.8042
15455SOL    HW148359   5.587   3.845   7.746 -1.2670 -2.3304  2.3750
15455SOL    HW248360   5.506   3.938   7.658 -0.8307 -0.3791  3.9754
15456SOL     OW48361   8.305   6.379   6.085 -0.1692  0.2921  0.7941
15456SOL    HW148362   8.376   6.381   6.148 -0.0293  1.0260  0.6226
15456SOL    HW248363   8.329   6.310   6.024 -0.5461 -0.7746  1.8045
15457SOL     OW48364   2.100   8.712   2.495 -0.4305 -0.1562  0.3135
15457SOL    HW148365   2.095   8.678   2.405  0.8750 -1.4885  0.7074
15457SOL    HW248366   2.009   8.735   2.517 -1.2552 -2.4709 -0.3748
15458SOL     OW48367   5.788   0.945   5.028  0.1007 -0.5309 -0.1224
15458SOL    HW148368   5.770   0.926   4.936 -1.0200 -1.0827  0.1928
15458SOL    HW248369   5.759   1.036   5.040  1.5458  0.0296 -0.6221
15459SOL     OW48370   0.358   2.321   2.843  0.5306  0.4347 -0.4609
15459SOL    HW148371   0.276   2.292   2.883  1.0994  0.0981  0.4871
15459SOL    HW248372   0.396   2.382   2.906  1.5689 -0.2989 -0.3393
15460SOL     OW48373   6.296   7.624   4.039 -0.3367  0.4217  0.0776
15460SOL    HW148374   6.354   7.697   4.062  2.1550 -1.4134  0.0147
15460SOL    HW248375   6.269   7.643   3.949  0.7687  0.9958 -0.1508
15461SOL     OW48376   8.875   0.375   7.848 -0.5450 -0.3998  1.2581
15461SOL    HW148377   8.846   0.311   7.784 -2.2679  1.0773  0.4592
15461SOL    HW248378   8.968   0.390   7.827 -0.9213 -0.3711 -0.5502
15462SOL     OW48379   4.334   5.842   2.585 -0.6417 -0.4866  0.2168
15462SOL    HW148380   4.426   5.859   2.606 -0.6441  2.0419 -1.4138
15462SOL    HW248381   4.321   5.750   2.608  2.1281 -0.7745  0.9951
15463SOL     OW48382   3.418   3.109   2.253 -0.5446  0.1482  0.8470
15463SOL    HW148383   3.416   3.016   2.275  1.8020  0.5150  2.9657
15463SOL    HW248384   3.358   3.117   2.178  0.7698 -3.3903 -0.7896
15464SOL     OW48385   1.095   7.730   1.957  0.6493  0.5926 -0.4376
15464SOL    HW148386   1.012   7.756   1.996  0.4226  3.2168 -2.3771
15464SOL    HW248387   1.123   7.654   2.008 -2.7088 -0.1680  0.5539
15465SOL     OW48388   0.316   2.369   7.087  0.3682 -0.0767  0.4103
15465SOL    HW148389   0.360   2.435   7.142  0.0255 -1.3177  2.2697
15465SOL    HW248390   0.227   2.403   7.076  0.3440  0.0310  0.9151
15466SOL     OW48391   0.749   6.628   3.997  0.1156  0.1865 -0.8759
15466SOL    HW148392   0.659   6.658   3.993  0.4674  1.3532 -0.4296
15466SOL    HW248393   0.801   6.705   3.972  0.9897 -0.4437 -1.0427
15467SOL     OW48394   8.777   1.560   5.052 -0.3623 -0.2075 -0.0934
15467SOL    HW148395   8.871   1.553   5.068 -0.3499 -0.7188 -0.3746
15467SOL    HW248396   8.771   1.601   4.965 -0.3928 -0.4909 -0.2262
15468SOL     OW48397   1.988   8.202   7.187 -0.0208  0.0458 -0.2271
15468SOL    HW148398   2.008   8.256   7.264 -0.7686  1.2283 -0.8400
15468SOL    HW248399   2.073   8.179   7.150  0.3078  0.6948  0.1190
15469SOL     OW48400   8.665   4.092   1.407 -0.1650 -0.6658 -0.2445
15469SOL    HW148401   8.705   4.024   1.462 -1.3776 -2.0915 -1.0511
15469SOL    HW248402   8.618   4.148   1.469 -0.1244 -1.2549  0.3391
15470SOL     OW48403   4.328   3.371   5.366 -0.3108  0.1798 -0.3826
15470SOL    HW148404   4.398   3.361   5.302 -0.6455  1.2101 -0.9456
15470SOL    HW248405   4.288   3.456   5.344 -1.9648 -0.5353 -0.3324
15471SOL     OW48406   6.584   4.618   0.318 -0.0287  0.2260  0.4257
15471SOL    HW148407   6.593   4.523   0.312  1.2629  0.3902 -0.4559
15471SOL    HW248408   6.637   4.642   0.394 -0.2281  0.2582  0.5545
15472SOL     OW48409   8.135   3.518   2.253 -0.0017  0.6241 -0.1528
15472SOL    HW148410   8.157   3.480   2.167 -1.6896 -1.7899  0.3730
15472SOL    HW248411   8.190   3.470   2.315 -0.8901  0.2621  0.3690
15473SOL     OW48412   0.755   8.499   0.634  0.0265  0.3876 -0.2276
15473SOL    HW148413   0.706   8.548   0.700  0.2175 -1.0305  1.0120
15473SOL    HW248414   0.690   8.474   0.569 -0.2781  1.2664 -0.2810
15474SOL     OW48415   5.717   6.650   4.876 -0.3662  0.1055 -0.1274
15474SOL    HW148416   5.774   6.615   4.809 -0.2362 -0.6770  0.3795
15474SOL    HW248417   5.719   6.745   4.862 -0.0074 -0.0144 -0.9458
15475SOL     OW48418   3.876   7.088   0.333  0.2878  0.1176  0.5134
15475SOL    HW148419   3.785   7.092   0.363  0.1843 -0.5770  0.3036
15475SOL    HW248420   3.926   7.130   0.404 -0.0330 -0.8711  1.3415
15476SOL     OW48421   6.878   3.354   6.618 -0.0781 -0.5650 -0.0048
15476SOL    HW148422   6.789   3.383   6.636 -0.0761  0.5012 -1.5488
15476SOL    HW248423   6.917   3.340   6.705 -1.2486  0.4698  0.7142
15477SOL     OW48424   7.862   4.775   0.934  0.1330 -0.5102 -0.7259
15477SOL    HW148425   7.847   4.719   0.858  1.8894 -0.0433 -1.4660
15477SOL    HW248426   7.901   4.717   0.999  0.5286 -0.4700 -0.9282
15478SOL     OW48427   1.386   6.067   7.509 -0.7901  0.3544  0.4261
15478SOL    HW148428   1.362   5.984   7.550  0.2053 -0.3924 -0.4726
15478SOL    HW248429   1.338   6.067   7.426  0.7538 -0.2827 -0.5100
15479SOL     OW48430   5.414   2.349   6.057  0.0293 -0.3583  0.5284
15479SOL    HW148431   5.503   2.380   6.039  1.0854 -3.1824  0.5145
15479SOL    HW248432   5.390   2.394   6.138  1.3728  0.5710  0.4610
15480SOL     OW48433   1.478   7.456   6.259  0.2273 -0.7383 -0.3385
15480SOL    HW148434   1.413   7.446   6.189 -0.0533 -0.7751 -0.0734
15480SOL    HW248435   1.450   7.395   6.327 -0.1042  0.0519  0.2492
15481SOL     OW48436   7.560   8.847   7.136 -0.3199  0.9859 -0.9084
15481SOL    HW148437   7.518   8.891   7.210  0.5165  1.2151 -0.5601
15481SOL    HW248438   7.492   8.790   7.101 -0.6986  0.7810  0.1149
15482SOL     OW48439   4.988   8.625   5.320  0.1678 -0.2069  0.2516
15482SOL    HW148440   4.932   8.693   5.284 -2.9244 -2.1262  1.0384
15482SOL    HW248441   5.019   8.661   5.403  0.7838  1.1811 -0.5424
15483SOL     OW48442   6.977   5.887   0.913  0.3644  0.7179  0.4308
15483SOL    HW148443   6.905   5.862   0.971  0.5061  1.8903  1.1376
15483SOL    HW248444   6.936   5.943   0.847  0.6493  1.6077  0.9886
15484SOL     OW48445   0.956   7.272   7.522  0.6270  0.0217  0.2613
15484SOL    HW148446   0.953   7.327   7.444  1.3468 -0.3114 -0.0116
15484SOL    HW248447   1.048   7.271   7.548  0.8497 -1.9583 -0.4215
15485SOL     OW48448   6.550   2.191   3.035  0.2875  0.1233  0.1825
15485SOL    HW148449   6.576   2.148   2.954 -0.4843 -0.1122  0.0525
15485SOL    HW248450   6.543   2.283   3.012 -1.9533 -0.1792 -0.5798
15486SOL     OW48451   0.689   7.218   7.311 -0.7871 -0.3937  0.6726
15486SOL    HW148452   0.640   7.239   7.232  0.2447  0.6052  0.2752
15486SOL    HW248453   0.738   7.298   7.332 -2.0573 -0.1672  3.1011
15487SOL     OW48454   5.839   1.744   5.131 -0.1237 -0.4467  0.1094
15487SOL    HW148455   5.808   1.659   5.098  0.1312  0.0183 -1.4245
15487SOL    HW248456   5.928   1.751   5.096 -0.0054  0.3013  0.5481
15488SOL     OW48457   8.387   6.119   2.917  0.4075 -0.4783  0.1428
15488SOL    HW148458   8.336   6.107   2.997 -0.7282 -0.4867 -0.5608
15488SOL    HW248459   8.377   6.212   2.896 -0.2354 -0.7093 -0.5968
15489SOL     OW48460   8.369   6.391   0.774 -0.6380 -0.4687  0.0862
15489SOL    HW148461   8.350   6.328   0.705 -1.6864  0.5786 -0.6336
15489SOL    HW248462   8.289   6.444   0.780 -0.3090 -0.1023  1.6362
15490SOL     OW48463   4.713   8.190   7.964  0.2920 -0.0805 -0.3107
15490SOL    HW148464   4.641   8.246   7.934 -0.8483  0.2410  2.6961
15490SOL    HW248465   4.790   8.246   7.959 -0.0509  0.3436 -1.2947
15491SOL     OW48466   2.813   1.364   1.913 -0.2830 -0.0533  0.3234
15491SOL    HW148467   2.789   1.453   1.940  0.1585  0.9628 -2.3910
15491SOL    HW248468   2.861   1.329   1.988  2.3110  3.1499  0.3774
15492SOL     OW48469   6.326   8.103   3.733  0.2383 -0.0267 -0.8895
15492SOL    HW148470   6.410   8.075   3.770 -1.7782 -4.0850  1.2555
15492SOL    HW248471   6.321   8.060   3.648 -0.0707 -0.6945 -0.5414
15493SOL     OW48472   0.616   2.523   1.910 -0.3435 -0.2147  0.2328
15493SOL    HW148473   0.582   2.567   1.832 -1.0377 -0.1884  0.5395
15493SOL    HW248474   0.695   2.572   1.932 -0.4246  0.1020 -0.1613
15494SOL     OW48475   1.471   4.122   4.673  0.6930  0.4087  0.6114
15494SOL    HW148476   1.553   4.172   4.675  0.5155  0.7026  0.5963
15494SOL    HW248477   1.440   4.123   4.764 -0.0785  1.6091  0.3436
15495SOL     OW48478   3.915   4.039   3.977 -0.1172  0.3462 -0.0617
15495SOL    HW148479   3.956   4.058   4.062  0.9842  0.3517 -0.5665
15495SOL    HW248480   3.963   3.963   3.945 -1.4641 -0.5205 -0.0722
15496SOL     OW48481   5.644   5.307   4.937  0.1737  0.0881 -0.1214
15496SOL    HW148482   5.632   5.285   5.029  0.0275  2.1875  0.4151
15496SOL    HW248483   5.555   5.319   4.904  0.2586  0.5730 -0.1874
15497SOL     OW48484   8.166   0.400   2.586  0.1720  0.0819 -0.4512
15497SOL    HW148485   8.228   0.339   2.627 -0.8860 -0.4472  0.4048
15497SOL    HW248486   8.123   0.444   2.660 -0.8154  0.0854 -1.0118
15498SOL     OW48487   7.650   4.450   6.849 -0.1562  0.1833 -0.2227
15498SOL    HW148488   7.579   4.514   6.854  0.1091  0.5442 -1.0071
15498SOL    HW248489   7.728   4.502   6.834 -0.0737 -0.3826 -1.9433
15499SOL     OW48490   3.856   8.397   1.457  0.9410 -0.4476  0.0559
15499SOL    HW148491   3.857   8.356   1.371 -1.4343 -0.9763  0.2188
15499SOL    HW248492   3.906   8.477   1.447  1.4706 -0.9516 -1.5597
15500SOL     OW48493   6.326   2.507   2.505 -0.5802 -0.3742  0.4050
15500SOL    HW148494   6.299   2.432   2.558 -1.1801 -0.3623  0.1221
15500SOL    HW248495   6.244   2.544   2.472 -0.1629 -1.3257 -1.8330
15501SOL     OW48496   1.658   7.551   3.472 -0.5343  0.9946 -0.3051
15501SOL    HW148497   1.564   7.567   3.475 -0.7470 -0.2363  2.0243
15501SOL    HW248498   1.671   7.495   3.396 -1.5275  1.8832 -1.1573
15502SOL     OW48499   4.315   4.851   7.067 -0.0077  0.2292 -0.0779
15502SOL    HW148500   4.363   4.894   7.138 -3.6428  1.3416  1.9780
15502SOL    HW248501   4.279   4.924   7.016 -1.6617 -0.4167  0.1005
15503SOL     OW48502   8.773   0.355   0.533  0.5365 -0.0564 -0.1822
15503SOL    HW148503   8.865   0.335   0.552  0.9764  1.0532 -1.0048
15503SOL    HW248504   8.728   0.343   0.617  1.7194  0.8807  0.6385
15504SOL     OW48505   1.433   3.856   0.739 -0.6381  0.0222  0.1035
15504SOL    HW148506   1.504   3.813   0.787  2.0224  0.2923 -3.2561
15504SOL    HW248507   1.455   3.949   0.740 -1.0803  0.1473 -0.7764
15505SOL     OW48508   4.302   4.439   2.642  0.2756 -0.3920  0.1706
15505SOL    HW148509   4.300   4.534   2.629  2.1698 -0.4350 -0.7678
15505SOL    HW248510   4.282   4.427   2.735 -0.1481  0.9115  0.2667
15506SOL     OW48511   8.675   8.131   4.959  0.2280 -0.0344 -0.4108
15506SOL    HW148512   8.729   8.155   5.034  0.7293  1.3924 -1.1911
15506SOL    HW248513   8.717   8.173   4.885  0.1859 -2.0350 -1.6523
15507SOL     OW48514   8.374   8.873   8.744  0.5842 -0.0083  0.5263
15507SOL    HW148515   8.463   8.902   8.722  0.7815 -1.2390 -0.4027
15507SOL    HW248516   8.351   8.924   8.821  1.1079  2.2130 -0.6974
15508SOL     OW48517   4.782   8.453   7.700  0.3211 -0.7102  0.1344
15508SOL    HW148518   4.752   8.542   7.678 -1.2434 -1.2991 -0.2367
15508SOL    HW248519   4.855   8.437   7.640  1.0461  0.5496  0.6434
15509SOL     OW48520   6.314   2.852   0.013 -0.3636  0.0654  0.2424
15509SOL    HW148521   6.409   2.844   0.009 -0.2244  0.7798  1.6296
15509SOL    HW248522   6.284   2.763   0.034 -0.1065 -0.4097 -1.3020
15510SOL     OW48523   1.381   5.933   1.752  0.2713  0.0759  0.1531
15510SOL    HW148524   1.372   6.017   1.799  0.1449  0.5373 -0.6785
15510SOL    HW248525   1.434   5.955   1.675 -1.3926 -0.1852 -1.1233
15511SOL     OW48526   0.858   7.835   8.483  0.0261  0.5712  0.8169
15511SOL    HW148527   0.862   7.841   8.387 -0.3210 -0.8075  0.6936
15511SOL    HW248528   0.826   7.746   8.500  0.6763  0.5811  2.2269
15512SOL     OW48529   8.116   6.206   5.900  0.5119 -0.3981 -0.3100
15512SOL    HW148530   8.094   6.298   5.913  0.3576 -0.4975  0.1860
15512SOL    HW248531   8.045   6.158   5.943  0.6055 -0.7470 -0.5375
15513SOL     OW48532   3.286   3.718   0.099 -0.4616  0.0637  0.2851
15513SOL    HW148533   3.322   3.754   0.018 -1.6154 -0.6573 -0.5825
15513SOL    HW248534   3.362   3.682   0.145  0.1624  0.1454 -0.6541
15514SOL     OW48535   1.531   2.758   2.900  0.8416  0.5700 -0.3008
15514SOL    HW148536   1.467   2.767   2.971  0.6369  1.2593 -0.5730
15514SOL    HW248537   1.599   2.822   2.921  0.7882  0.7644 -0.7227
15515SOL     OW48538   3.586   8.246   5.870 -0.1702  0.1382 -0.3063
15515SOL    HW148539   3.580   8.334   5.833 -0.4651  0.6486  0.9373
15515SOL    HW248540   3.573   8.188   5.794 -1.3383  1.1516 -0.9221
15516SOL     OW48541   6.300   1.050   3.052 -0.4863 -0.6774  0.4205
15516SOL    HW148542   6.341   1.038   3.138  2.2915  1.2195 -0.4999
15516SOL    HW248543   6.249   1.130   3.060 -1.2963 -1.1944  0.6050
15517SOL     OW48544   5.957   4.712   3.136 -0.4119 -0.1677  0.3472
15517SOL    HW148545   5.996   4.733   3.220 -1.8636 -1.1195  1.3037
15517SOL    HW248546   5.957   4.616   3.132 -0.5949 -0.1427 -0.6280
15518SOL     OW48547   1.458   0.499   6.882 -0.1009 -0.3604 -0.0688
15518SOL    HW148548   1.441   0.591   6.902 -0.0066 -0.6618  1.5483
15518SOL    HW248549   1.374   0.455   6.899  0.1614 -0.7292  0.2939
15519SOL     OW48550   5.073   5.959   2.313 -0.2449  0.4784  0.2371
15519SOL    HW148551   5.113   6.000   2.389 -1.1600 -0.4732  1.2641
15519SOL    HW248552   4.986   5.932   2.343 -0.0214 -1.3801 -0.6466
15520SOL     OW48553   5.296   1.940   7.908  0.1295  0.2826  0.1351
15520SOL    HW148554   5.219   1.996   7.918 -0.5516 -0.8997  2.2229
15520SOL    HW248555   5.335   1.938   7.995  2.0175  0.1118 -0.6830
15521SOL     OW48556   1.432   5.794   6.860  0.0792 -0.2276 -0.1856
15521SOL    HW148557   1.395   5.881   6.877 -1.3136 -0.7194 -0.5799
15521SOL    HW248558   1.464   5.764   6.945 -0.2633  0.2915  0.1318
15522SOL     OW48559   7.180   8.027   3.542 -0.0606  0.4616  0.5993
15522SOL    HW148560   7.102   8.083   3.549 -0.9078 -0.8224  2.2058
15522SOL    HW248561   7.150   7.949   3.495  0.0369 -0.3281  1.7909
15523SOL     OW48562   6.554   6.403   8.676 -0.2014 -0.3805 -0.3996
15523SOL    HW148563   6.501   6.355   8.740 -1.0564 -1.4625 -1.8710
15523SOL    HW248564   6.494   6.470   8.642  0.4294  0.5703  0.3337
15524SOL     OW48565   4.015   3.798   3.903 -0.3594  0.0546  0.4989
15524SOL    HW148566   4.049   3.726   3.956  1.7591  1.2046  0.7891
15524SOL    HW248567   4.077   3.807   3.831 -1.6182  0.4169 -0.5942
15525SOL     OW48568   7.514   5.225   4.065  0.4188  0.1788 -0.0025
15525SOL    HW148569   7.510   5.229   3.970 -0.7222  1.5383  0.0628
15525SOL    HW248570   7.564   5.302   4.091  1.5467 -0.6858  0.4867
15526SOL     OW48571   3.396   7.418   6.624 -0.4115  0.6667 -0.1537
15526SOL    HW148572   3.434   7.431   6.537 -0.9637 -0.9624 -0.6821
15526SOL    HW248573   3.357   7.330   6.620  2.0828 -0.7507  2.6733
15527SOL     OW48574   1.368   7.891   2.223  0.2297 -0.3703  0.0631
15527SOL    HW148575   1.371   7.971   2.276  0.1003 -0.4327  0.1661
15527SOL    HW248576   1.275   7.880   2.202  0.1303 -0.9727  0.7878
15528SOL     OW48577   4.291   0.518   7.192 -0.1619 -0.0853 -0.1306
15528SOL    HW148578   4.205   0.504   7.232 -0.3217  0.7394 -0.1823
15528SOL    HW248579   4.305   0.440   7.139 -0.7534 -0.3576  0.1016
15529SOL     OW48580   8.368   6.875   3.705 -1.0742 -0.5405  0.4215
15529SOL    HW148581   8.355   6.946   3.642  0.4064  0.5585  1.2889
15529SOL    HW248582   8.316   6.802   3.670 -0.3817  0.0374 -2.0040
15530SOL     OW48583   5.931   3.943   7.570  0.6085 -0.0139  0.0589
15530SOL    HW148584   6.001   3.960   7.506  0.2744  2.4229  0.2509
15530SOL    HW248585   5.897   3.857   7.545  1.9927 -0.1422 -1.6227
15531SOL     OW48586   0.403   3.252   0.138 -0.3945  0.2649  0.4307
15531SOL    HW148587   0.437   3.249   0.227 -0.1756  0.4225  0.3539
15531SOL    HW248588   0.461   3.194   0.088 -1.4754 -1.0942  0.7004
15532SOL     OW48589   5.356   3.937   4.061  0.6822  0.5784 -0.2564
15532SOL    HW148590   5.366   3.952   3.967 -0.3359 -2.0956 -0.8752
15532SOL    HW248591   5.430   3.881   4.085 -1.0444 -1.9155 -0.3699
15533SOL     OW48592   3.494   4.937   5.839 -0.2498 -0.0111  0.0324
15533SOL    HW148593   3.408   4.905   5.866 -0.7866  1.4403  0.1228
15533SOL    HW248594   3.498   4.920   5.745  0.0781 -1.6269  0.3108
15534SOL     OW48595   0.304   1.225   3.213 -0.0781 -0.0463  0.0543
15534SOL    HW148596   0.324   1.163   3.142  0.1040 -1.7780  1.5210
15534SOL    HW248597   0.211   1.244   3.204 -0.1388 -0.5658 -0.4250
15535SOL     OW48598   7.329   5.206   3.085  0.4380  0.3143 -0.0956
15535SOL    HW148599   7.364   5.215   3.173 -0.0203 -1.0780  0.2409
15535SOL    HW248600   7.243   5.165   3.097 -1.1425  3.0529 -0.9287
15536SOL     OW48601   6.497   3.741   2.317 -0.1882  0.5160  0.3197
15536SOL    HW148602   6.432   3.798   2.278  0.0436  1.5041  1.3235
15536SOL    HW248603   6.554   3.799   2.367  2.0891 -0.1788 -1.2845
15537SOL     OW48604   4.618   5.171   7.133 -0.4144  0.2091 -0.8499
15537SOL    HW148605   4.561   5.161   7.058  0.0511 -2.6093 -0.9147
15537SOL    HW248606   4.560   5.161   7.209 -0.4453  0.1688 -0.8786
15538SOL     OW48607   3.415   4.901   7.003 -0.8344 -0.2384 -0.1352
15538SOL    HW148608   3.474   4.826   7.016 -0.5918 -0.0153  0.0720
15538SOL    HW248609   3.450   4.947   6.927  1.6284  2.0691  2.1522
15539SOL     OW48610   4.541   8.443   3.504  0.1656 -0.2466 -0.4357
15539SOL    HW148611   4.631   8.466   3.525  0.5124 -0.3077 -1.7680
15539SOL    HW248612   4.543   8.348   3.491  0.0396 -0.1728 -1.0357
15540SOL     OW48613   5.728   7.904   3.532 -0.6256 -0.3213  0.0921
15540SOL    HW148614   5.682   7.910   3.616 -1.2777 -3.3386  0.0399
15540SOL    HW248615   5.815   7.872   3.554 -0.6466 -0.6798 -0.3252
15541SOL     OW48616   2.892   2.513   2.955  0.1332 -0.1179  0.0064
15541SOL    HW148617   2.948   2.499   3.032 -0.9321 -0.8684  0.6769
15541SOL    HW248618   2.831   2.583   2.982 -2.9123 -3.0486  1.4736
15542SOL     OW48619   2.956   8.063   7.022 -0.3810 -0.4577 -0.3392
15542SOL    HW148620   2.937   8.110   7.103 -0.0488 -2.8185  1.2106
15542SOL    HW248621   2.890   8.094   6.960 -0.4713  1.6114  0.7102
15543SOL     OW48622   1.513   5.228   3.325 -0.9025 -0.1005 -0.0272
15543SOL    HW148623   1.465   5.278   3.258  0.5115 -0.3509 -1.2903
15543SOL    HW248624   1.473   5.253   3.408 -4.0075 -1.1529 -1.0597
15544SOL     OW48625   4.222   5.359   1.686  0.0841 -0.5118 -0.0735
15544SOL    HW148626   4.317   5.353   1.691  0.1742  1.2618  1.4970
15544SOL    HW248627   4.191   5.324   1.769 -0.7302 -1.8387 -0.8950
15545SOL     OW48628   0.268   0.453   7.554 -0.4487 -0.1427 -0.0737
15545SOL    HW148629   0.250   0.430   7.645 -0.8037 -0.2705 -0.1762
15545SOL    HW248630   0.207   0.400   7.503 -0.9558  0.6817 -0.3400
15546SOL     OW48631   8.449   2.147   2.998  1.2192 -0.0368  0.8346
15546SOL    HW148632   8.364   2.120   2.963  1.1781  1.1428 -0.0431
15546SOL    HW248633   8.434   2.160   3.092  0.6468 -0.6501  0.8331
15547SOL     OW48634   8.335   4.042   2.099  0.3046 -0.5315 -0.9525
15547SOL    HW148635   8.291   4.038   2.184 -0.0397 -2.3937 -1.1750
15547SOL    HW248636   8.428   4.047   2.121  0.1947 -0.5965 -0.4590
15548SOL     OW48637   8.039   6.954   3.282  0.4355  0.0780 -0.2978
15548SOL    HW148638   7.971   6.901   3.239  1.0798 -1.0416  0.0166
15548SOL    HW248639   8.027   7.042   3.246 -1.9214  0.1861  0.6122
15549SOL     OW48640   8.074   5.706   1.285 -0.2828  0.0575  0.3764
15549SOL    HW148641   8.088   5.624   1.332 -0.1932  0.6557  1.4244
15549SOL    HW248642   8.004   5.749   1.334  0.8213  1.3560  0.8511
15550SOL     OW48643   7.549   2.528   8.458 -0.2741  0.0572  0.1078
15550SOL    HW148644   7.497   2.588   8.511  2.4848  1.2718  1.7133
15550SOL    HW248645   7.547   2.565   8.370 -2.1248  0.0070  0.1020
15551SOL     OW48646   0.272   6.457   8.598  0.6911 -0.1332 -0.3631
15551SOL    HW148647   0.280   6.363   8.614  0.8517 -0.1935 -0.7730
15551SOL    HW248648   0.310   6.498   8.676  1.3449 -0.4159 -0.5254
15552SOL     OW48649   4.224   1.139   2.115 -0.2519 -0.4155 -0.0796
15552SOL    HW148650   4.243   1.048   2.139 -1.5849 -0.8612 -0.6125
15552SOL    HW248651   4.244   1.143   2.021  2.6766  0.6861  0.4868
15553SOL     OW48652   8.463   5.432   5.327  0.0242  0.4153 -0.2565
15553SOL    HW148653   8.540   5.481   5.356  0.4887 -0.2712 -0.2965
15553SOL    HW248654   8.483   5.406   5.237  0.6481 -1.4722  0.3752
15554SOL     OW48655   7.251   4.536   4.204 -0.2573  0.5461 -0.2952
15554SOL    HW148656   7.264   4.467   4.270  0.0282  1.7739  0.9762
15554SOL    HW248657   7.174   4.584   4.234 -0.6438  0.6187 -1.3430
15555SOL     OW48658   7.860   2.964   0.749 -0.6742 -0.0321 -0.1737
15555SOL    HW148659   7.824   2.945   0.836  1.7499 -0.4493  0.8255
15555SOL    HW248660   7.879   3.058   0.750 -0.0714 -0.1489  0.0118
15556SOL     OW48661   6.228   8.596   4.033  0.5210  0.2856  0.8132
15556SOL    HW148662   6.204   8.594   3.940 -1.1398  1.7188  1.1626
15556SOL    HW248663   6.265   8.683   4.046  1.1290 -0.0574  1.4295
15557SOL     OW48664   5.493   5.520   2.772 -0.0661 -0.1027 -0.2917
15557SOL    HW148665   5.533   5.467   2.841 -1.1329 -0.1606  0.2979
15557SOL    HW248666   5.423   5.465   2.737  1.3121 -0.6392 -2.4067
15558SOL     OW48667   5.252   5.819   6.805 -0.3694  0.3099 -0.1580
15558SOL    HW148668   5.188   5.761   6.846  0.0995 -0.5115 -0.5772
15558SOL    HW248669   5.271   5.779   6.720  0.2148  0.8938 -0.3157
15559SOL     OW48670   5.709   7.041   8.773  0.4036  0.2808 -0.7260
15559SOL    HW148671   5.632   7.082   8.733  0.9885  0.1174 -2.0703
15559SOL    HW248672   5.763   7.115   8.803 -0.3424  0.3912  0.3876
15560SOL     OW48673   8.000   0.566   2.418 -0.5316 -0.6362 -0.6407
15560SOL    HW148674   8.087   0.528   2.433  0.5293  1.5411 -0.7875
15560SOL    HW248675   7.961   0.512   2.350 -0.4380 -3.3039  1.2852
15561SOL     OW48676   6.406   8.551   4.883  0.3078 -0.2617 -0.3823
15561SOL    HW148677   6.392   8.493   4.958 -0.1722  0.2204 -0.0925
15561SOL    HW248678   6.481   8.604   4.908 -1.3477  1.6473  0.8825
15562SOL     OW48679   5.046   0.498   8.781  0.4642 -0.3104 -0.6266
15562SOL    HW148680   5.015   0.436   8.714  1.6739 -1.0761 -0.5073
15562SOL    HW248681   4.985   0.571   8.776 -2.0119 -2.1553  0.2900
15563SOL     OW48682   5.355   6.582   7.999 -0.2238  0.4245  0.0339
15563SOL    HW148683   5.328   6.654   7.942  0.7160 -0.3395 -1.4395
15563SOL    HW248684   5.446   6.601   8.019  0.3018 -0.7625 -1.0920
15564SOL     OW48685   1.590   0.096   1.898  0.1192  0.0477  0.1510
15564SOL    HW148686   1.683   0.075   1.911 -0.1370 -1.2266  0.0561
15564SOL    HW248687   1.578   0.094   1.803  0.0228  0.3873  0.1540
15565SOL     OW48688   8.525   6.264   3.479 -0.3485 -0.1598 -0.4534
15565SOL    HW148689   8.474   6.342   3.501  1.6170  2.3706 -3.8543
15565SOL    HW248690   8.460   6.196   3.463 -2.3564  1.5614  0.0138
15566SOL     OW48691   2.710   7.309   5.859 -0.5296 -0.2872  0.0103
15566SOL    HW148692   2.767   7.377   5.824  0.4783 -1.2006 -0.1853
15566SOL    HW248693   2.679   7.261   5.782 -1.8663  0.4089  0.0881
15567SOL     OW48694   1.390   1.553   3.024 -0.2709 -0.2176  0.1541
15567SOL    HW148695   1.474   1.520   2.994 -0.9368  0.7885 -3.2058
15567SOL    HW248696   1.406   1.582   3.114  2.7032 -0.8635 -0.0803
15568SOL     OW48697   5.957   8.680   3.463  0.4122  0.5565  0.0716
15568SOL    HW148698   5.954   8.697   3.369  3.2586 -1.2296 -0.4680
15568SOL    HW248699   5.904   8.601   3.475  0.9086  0.1711 -0.2332
15569SOL     OW48700   7.310   8.060   8.223  0.3991 -0.2263  0.2455
15569SOL    HW148701   7.292   8.025   8.135 -1.0445  0.1802  0.3498
15569SOL    HW248702   7.263   8.000   8.281 -0.8547  1.0062  0.5344
15570SOL     OW48703   5.895   2.037   4.072 -0.4785 -0.1833 -0.1403
15570SOL    HW148704   5.822   2.002   4.124 -0.3316 -1.1897 -0.6020
15570SOL    HW248705   5.910   1.971   4.004 -0.6610  1.0922 -1.4646
15571SOL     OW48706   5.639   6.086   5.537 -0.3872 -0.5196 -0.3201
15571SOL    HW148707   5.713   6.054   5.485  1.0785  1.8121  0.1694
15571SOL    HW248708   5.586   6.008   5.554  1.4653 -2.1293 -1.4755
15572SOL     OW48709   1.524   6.911   2.413  0.4445  0.2347 -0.3697
15572SOL    HW148710   1.582   6.976   2.374  0.1924  1.9108  1.8315
15572SOL    HW248711   1.439   6.927   2.372 -0.0435  2.5969  1.3070
15573SOL     OW48712   7.026   6.323   4.593  0.2893 -0.1443 -0.0532
15573SOL    HW148713   7.082   6.247   4.573  1.6041  0.2846  1.6979
15573SOL    HW248714   7.002   6.359   4.508  2.3012 -0.6657 -0.8919
15574SOL     OW48715   4.504   8.103   0.408 -0.7681  1.1225 -0.8184
15574SOL    HW148716   4.482   8.190   0.441 -0.3659  1.2481 -0.8725
15574SOL    HW248717   4.598   8.108   0.389 -0.5037  0.3536  0.1892
15575SOL     OW48718   2.348   4.706   3.078 -0.3238 -0.6364 -0.1795
15575SOL    HW148719   2.391   4.622   3.097 -0.8127 -0.7304  0.5483
15575SOL    HW248720   2.346   4.751   3.162  0.2036  0.2421 -0.6226
15576SOL     OW48721   1.135   7.423   6.873  0.4384  0.5315 -0.5668
15576SOL    HW148722   1.068   7.487   6.849  0.5370  0.5203 -0.8798
15576SOL    HW248723   1.217   7.473   6.871  0.2390  1.0321  1.7254
15577SOL     OW48724   3.170   1.324   0.789  0.3064  0.1274  0.4907
15577SOL    HW148725   3.086   1.283   0.808  1.3721 -1.9011  1.1896
15577SOL    HW248726   3.208   1.269   0.721  1.3285  0.6375  0.6338
15578SOL     OW48727   2.144   8.756   6.916 -0.6626  0.0315 -0.1871
15578SOL    HW148728   2.152   8.833   6.973 -0.7077 -0.3570  0.3587
15578SOL    HW248729   2.109   8.688   6.974  1.1878 -0.9535 -0.1552
15579SOL     OW48730   3.572   5.639   5.005  0.0021 -0.0099  0.0393
15579SOL    HW148731   3.598   5.660   5.094  0.4749 -0.0477 -0.0886
15579SOL    HW248732   3.573   5.543   5.001 -0.7056 -0.0298  0.1933
15580SOL     OW48733   6.442   4.527   7.186 -1.0459 -0.2172 -0.1828
15580SOL    HW148734   6.462   4.550   7.095 -1.3059 -0.1734 -0.2302
15580SOL    HW248735   6.520   4.482   7.217 -1.0621 -0.4816 -0.5168
15581SOL     OW48736   8.557   8.727   2.790 -0.0106 -0.3384  0.0832
15581SOL    HW148737   8.552   8.637   2.822 -0.8080 -0.7319 -1.0988
15581SOL    HW248738   8.537   8.721   2.697  1.8699  0.8186 -0.4546
15582SOL     OW48739   0.235   1.242   6.691  0.2356 -0.2460 -0.3080
15582SOL    HW148740   0.172   1.300   6.648 -0.6538  0.2782  1.5880
15582SOL    HW248741   0.248   1.281   6.778  0.3484 -2.3574  0.6876
15583SOL     OW48742   2.919   8.489   7.414  0.3652  0.1798  0.6984
15583SOL    HW148743   2.834   8.509   7.453 -0.5030  0.8173 -1.3711
15583SOL    HW248744   2.904   8.409   7.364  0.8854  0.4918  0.0288
15584SOL     OW48745   0.966   7.215   3.681 -0.0435  0.4485  0.0687
15584SOL    HW148746   0.930   7.128   3.701 -0.2172  0.3245 -0.7453
15584SOL    HW248747   0.908   7.250   3.615 -0.6923  1.7114  1.2670
15585SOL     OW48748   8.407   3.724   4.885 -0.1857  0.4589  0.0819
15585SOL    HW148749   8.438   3.664   4.817 -1.0355 -0.6111  0.5975
15585SOL    HW248750   8.424   3.678   4.967 -1.6972  0.4855  0.4474
15586SOL     OW48751   8.657   2.934   5.780  0.3365  0.2744 -0.8930
15586SOL    HW148752   8.677   2.927   5.686 -0.6020 -0.0481 -1.0732
15586SOL    HW248753   8.649   2.844   5.810  1.9987  0.3287 -0.1829
15587SOL     OW48754   3.132   1.874   6.519 -0.1407  0.0031  0.5111
15587SOL    HW148755   3.086   1.869   6.435  1.6039  1.4324 -0.5946
15587SOL    HW248756   3.221   1.845   6.499  0.7206  1.8112  1.4884
15588SOL     OW48757   2.348   7.057   7.975  0.6190 -0.0646 -0.0180
15588SOL    HW148758   2.362   7.114   7.900 -0.3437  0.3068  0.0692
15588SOL    HW248759   2.271   7.004   7.950  0.2531  0.1106  0.7284
15589SOL     OW48760   4.331   2.080   3.307  0.0788 -0.0036  0.5093
15589SOL    HW148761   4.287   2.133   3.373 -0.0264 -1.1414  1.3811
15589SOL    HW248762   4.301   1.991   3.324 -0.0127 -0.3191 -1.1354
15590SOL     OW48763   5.976   5.019   3.580  0.5642  0.5735 -0.2884
15590SOL    HW148764   5.927   5.093   3.616 -1.8683 -1.9072  1.9487
15590SOL    HW248765   6.036   4.994   3.650 -0.9705 -1.4736  0.3999
15591SOL     OW48766   6.609   6.007   7.039 -0.4608 -0.1700  0.8477
15591SOL    HW148767   6.560   5.949   6.981 -0.7684  1.5825 -0.7268
15591SOL    HW248768   6.640   6.077   6.982  0.2086  1.0237  2.6125
15592SOL     OW48769   8.777   3.350   1.437 -0.3436 -0.8816 -0.7302
15592SOL    HW148770   8.773   3.303   1.354 -0.0685 -0.1212 -1.1835
15592SOL    HW248771   8.700   3.406   1.436  0.2383 -0.0693 -0.9760
15593SOL     OW48772   2.667   7.562   1.019  0.3894 -0.0649  0.2409
15593SOL    HW148773   2.710   7.642   0.988  2.4161 -1.6456 -1.2746
15593SOL    HW248774   2.590   7.553   0.963  0.2824  0.6749  0.2553
15594SOL     OW48775   4.723   3.028   5.538  0.4156 -0.2854  0.0387
15594SOL    HW148776   4.633   3.046   5.562  0.0997 -1.1365 -0.4403
15594SOL    HW248777   4.726   3.042   5.443  1.2431  1.4767  0.2873
15595SOL     OW48778   3.506   0.338   4.573  0.9919 -0.4024 -0.0283
15595SOL    HW148779   3.590   0.295   4.564  0.9609 -0.1121 -2.3702
15595SOL    HW248780   3.522   0.428   4.545  0.3371  0.2584  1.5751
15596SOL     OW48781   5.904   1.120   4.261  0.0386 -0.4534  0.0663
15596SOL    HW148782   5.913   1.075   4.177  0.9763  0.2777 -0.2396
15596SOL    HW248783   5.987   1.165   4.273  0.0022 -0.7162  1.4954
15597SOL     OW48784   0.630   7.862   4.263 -0.2535  0.0319 -0.1042
15597SOL    HW148785   0.608   7.828   4.349  1.0221 -1.4037 -0.2965
15597SOL    HW248786   0.546   7.872   4.219 -0.7794 -3.1137 -0.0757
15598SOL     OW48787   2.556   6.554   5.033  0.2594  0.3302 -0.0708
15598SOL    HW148788   2.483   6.575   5.091 -0.2903 -2.0450  0.2127
15598SOL    HW248789   2.634   6.563   5.088  0.0495  1.3433  0.0718
15599SOL     OW48790   3.814   5.139   1.960  0.3786  0.1168 -0.7475
15599SOL    HW148791   3.900   5.100   1.944 -0.2043 -1.8252  0.4962
15599SOL    HW248792   3.831   5.213   2.019  1.0220 -1.8576  1.7244
15600SOL     OW48793   4.578   5.847   2.721 -0.4384  0.0098 -0.3149
15600SOL    HW148794   4.574   5.752   2.709 -0.2070  0.1268 -1.4013
15600SOL    HW248795   4.655   5.861   2.776  0.3902 -0.3411 -1.3481
15601SOL     OW48796   6.989   1.103   0.754  0.3052  0.4373 -0.6649
15601SOL    HW148797   6.898   1.075   0.747 -0.3450  2.0967  0.5171
15601SOL    HW248798   6.999   1.171   0.688  0.2307  1.2876  0.1736
15602SOL     OW48799   2.808   3.563   6.059  0.5426  0.1872 -0.6565
15602SOL    HW148800   2.818   3.471   6.084  1.2133  0.1994 -0.8755
15602SOL    HW248801   2.889   3.585   6.013  0.0988  0.6951 -1.2080
15603SOL     OW48802   4.966   3.815   3.080 -0.4471 -0.0349  0.2526
15603SOL    HW148803   4.950   3.721   3.091  1.1150 -0.4871 -0.9964
15603SOL    HW248804   4.888   3.847   3.035 -0.7264 -0.8420  0.1442
15604SOL     OW48805   7.085   7.932   1.875  0.4543  0.2142 -0.2735
15604SOL    HW148806   7.127   7.935   1.961  3.7293  0.8073 -1.7531
15604SOL    HW248807   7.094   8.021   1.841 -1.2139  0.1009 -1.1053
15605SOL     OW48808   2.512   6.040   5.951  0.0247  0.6620 -0.0017
15605SOL    HW148809   2.525   5.972   6.017  1.6398  0.2233 -0.7395
15605SOL    HW248810   2.419   6.062   5.958  0.1488  0.7383  2.5116
15606SOL     OW48811   6.900   4.520   3.855  0.3080  0.1820 -0.4336
15606SOL    HW148812   6.868   4.457   3.790  0.7838  0.3318 -0.8272
15606SOL    HW248813   6.888   4.477   3.939 -0.8207  0.1997 -0.5781
15607SOL     OW48814   6.638   3.903   3.807  0.2450  0.0690 -0.5961
15607SOL    HW148815   6.586   3.859   3.740  0.6956 -0.0881 -0.8496
15607SOL    HW248816   6.687   3.970   3.760  2.2289 -1.4425 -0.8463
15608SOL     OW48817   6.576   1.468   5.527  0.1174  0.4137 -0.2293
15608SOL    HW148818   6.631   1.478   5.450 -0.8957  1.1545 -0.8813
15608SOL    HW248819   6.578   1.374   5.546  0.1473  0.1817 -1.3282
15609SOL     OW48820   8.735   0.959   3.067 -0.0853 -0.7389  0.4217
15609SOL    HW148821   8.703   0.884   3.016  0.9836 -1.8490  1.3044
15609SOL    HW248822   8.740   1.031   3.004 -1.0524 -1.4266 -0.4757
15610SOL     OW48823   5.623   4.743   2.128 -0.1895  0.1267 -0.3231
15610SOL    HW148824   5.633   4.735   2.222  0.6643 -0.1580 -0.4316
15610SOL    HW248825   5.528   4.748   2.114 -0.5918 -3.1226  0.3147
15611SOL     OW48826   6.596   5.439   4.826 -0.1422  0.2124 -0.1532
15611SOL    HW148827   6.585   5.521   4.874 -2.1761 -0.4348  0.5455
15611SOL    HW248828   6.550   5.454   4.743  0.8594  0.2961 -0.7187
15612SOL     OW48829   4.171   7.631   0.072  0.4400  0.2744  0.5278
15612SOL    HW148830   4.121   7.711   0.060 -0.4177 -0.2826  0.2610
15612SOL    HW248831   4.255   7.648   0.028 -0.7087  0.1089 -1.9001
15613SOL     OW48832   7.420   7.554   7.817  0.2746 -0.6035  0.6312
15613SOL    HW148833   7.443   7.599   7.735 -0.8506 -0.4924  0.3629
15613SOL    HW248834   7.505   7.533   7.857  0.8437 -0.8322 -0.6477
15614SOL     OW48835   2.010   6.479   6.077 -0.2454 -0.1018 -0.5052
15614SOL    HW148836   2.030   6.546   6.011  0.8306 -0.8183 -0.9405
15614SOL    HW248837   1.966   6.527   6.147  1.3703  1.2683 -0.3492
15615SOL     OW48838   0.019   8.432   0.567  0.1728  0.7471 -0.0638
15615SOL    HW148839  -0.008   8.442   0.476  0.1595  2.3267  0.0855
15615SOL    HW248840  -0.057   8.395   0.611 -0.5192  1.8267 -0.3233
15616SOL     OW48841   4.462   5.238   4.353  0.6021 -0.2106  0.3097
15616SOL    HW148842   4.542   5.231   4.405  0.6283  0.7056  0.4112
15616SOL    HW248843   4.392   5.211   4.412  0.6058  1.0169  0.9098
15617SOL     OW48844   4.441   7.549   3.310  0.0493 -0.1342  0.0455
15617SOL    HW148845   4.409   7.635   3.282 -0.0005  0.0538  0.6641
15617SOL    HW248846   4.532   7.564   3.334  0.3035 -0.4469 -0.6997
15618SOL     OW48847   5.340   7.631   2.377 -0.1423 -0.1888 -0.2114
15618SOL    HW148848   5.351   7.705   2.316 -0.9047 -1.1873 -1.6242
15618SOL    HW248849   5.408   7.569   2.351 -0.0081 -0.3286  0.4585
15619SOL     OW48850   2.359   1.695   8.581 -0.1954  0.1138  0.2978
15619SOL    HW148851   2.419   1.737   8.642 -0.0427 -0.6902  0.7140
15619SOL    HW248852   2.407   1.694   8.498 -0.0563  0.4276  0.3722
15620SOL     OW48853   8.043   4.001   2.068  0.1702 -0.0605  0.0743
15620SOL    HW148854   8.126   3.957   2.083  0.3840  0.6833  1.2682
15620SOL    HW248855   8.068   4.091   2.044 -0.2539  0.4806  1.5160
15621SOL     OW48856   5.583   6.859   0.865 -0.5624 -0.5980 -0.1872
15621SOL    HW148857   5.582   6.901   0.951  1.5232 -1.6785  0.4259
15621SOL    HW248858   5.535   6.920   0.809 -2.1642  0.0324  1.7511
15622SOL     OW48859   8.039   1.644   5.864  0.1644 -0.1222 -0.2983
15622SOL    HW148860   8.038   1.706   5.937  0.1885 -0.4017 -0.0564
15622SOL    HW248861   8.064   1.697   5.788 -1.3533  0.4729 -0.4047
15623SOL     OW48862   8.137   8.228   0.304 -0.8138 -0.1662 -0.0223
15623SOL    HW148863   8.157   8.240   0.397  0.0871  1.2186 -0.3627
15623SOL    HW248864   8.042   8.214   0.302 -0.8274 -0.3520  1.1132
15624SOL     OW48865   0.362   6.505   6.345  0.5198 -0.4606  1.0552
15624SOL    HW148866   0.454   6.480   6.349  1.3999  1.9342 -1.1658
15624SOL    HW248867   0.360   6.578   6.283 -2.8152 -0.0574  1.4596
15625SOL     OW48868   0.981   2.925   0.200  0.1642  0.1121 -0.0472
15625SOL    HW148869   1.069   2.888   0.195  0.5992  0.8243  1.6854
15625SOL    HW248870   0.965   2.959   0.111  0.3945 -2.6001 -1.2383
15626SOL     OW48871   5.093   7.545   4.380  0.1636 -0.2935 -0.2105
15626SOL    HW148872   5.178   7.538   4.422  1.2809 -1.5004 -2.5169
15626SOL    HW248873   5.092   7.475   4.315 -2.4823 -0.1192 -0.4616
15627SOL     OW48874   1.732   5.537   3.444 -0.0459 -0.7682 -0.6785
15627SOL    HW148875   1.709   5.605   3.380 -1.3373 -1.7435 -1.2798
15627SOL    HW248876   1.825   5.520   3.428  0.2796  0.7661 -0.5825
15628SOL     OW48877   3.405   8.056   1.721  0.1349 -0.1140 -1.5287
15628SOL    HW148878   3.358   8.129   1.679 -1.1776  0.6862  1.0895
15628SOL    HW248879   3.473   8.098   1.774 -2.1681 -0.3651  1.9847
15629SOL     OW48880   4.812   8.307   1.529 -0.0804  0.8884 -0.2698
15629SOL    HW148881   4.883   8.346   1.581 -0.9454  1.8501  0.2291
15629SOL    HW248882   4.732   8.348   1.563 -1.1850 -2.0335  0.9334
15630SOL     OW48883   6.006   4.616   0.516 -0.1717  0.4379 -0.1778
15630SOL    HW148884   6.018   4.609   0.421 -0.0985  1.3988 -0.2538
15630SOL    HW248885   6.068   4.684   0.542  0.5237 -0.5141  0.7162
15631SOL     OW48886   5.080   7.443   3.448 -0.0549  0.3709  0.8468
15631SOL    HW148887   5.075   7.419   3.540  1.9889  0.7696  1.1117
15631SOL    HW248888   5.160   7.400   3.416 -1.8642 -1.6930 -1.3954
15632SOL     OW48889   1.130   6.243   4.771  0.4069  0.2275  0.0629
15632SOL    HW148890   1.081   6.229   4.852 -0.3384 -0.3772 -0.4739
15632SOL    HW248891   1.097   6.175   4.711 -1.2694  2.4852 -1.7584
15633SOL     OW48892   1.109   4.856   2.970 -0.6233  0.2033 -0.2212
15633SOL    HW148893   1.154   4.785   3.016  0.4663  0.4314 -0.8945
15633SOL    HW248894   1.092   4.922   3.037  1.2208  0.6639 -0.1387
15634SOL     OW48895   7.282   3.933   8.652  0.2185 -0.4529  0.3119
15634SOL    HW148896   7.227   3.857   8.671  1.5905 -1.3284  0.9456
15634SOL    HW248897   7.372   3.902   8.666  0.8941  0.8932 -0.8040
15635SOL     OW48898   0.491   6.855   8.589 -0.2008 -0.3144 -0.6371
15635SOL    HW148899   0.411   6.849   8.641 -1.2775 -0.8996 -2.2736
15635SOL    HW248900   0.491   6.945   8.556  1.5795  0.7403  1.9426
15636SOL     OW48901   1.397   6.064   2.679  0.2445 -0.4676 -0.2645
15636SOL    HW148902   1.485   6.049   2.646  0.3496 -0.9678  0.2103
15636SOL    HW248903   1.397   6.025   2.767 -0.3331 -0.1299 -0.1029
15637SOL     OW48904   2.094   2.548   0.148 -0.1405  0.6339 -0.3423
15637SOL    HW148905   2.185   2.522   0.135 -0.5790 -0.8545 -0.6727
15637SOL    HW248906   2.059   2.560   0.060 -0.4411  0.5095 -0.2439
15638SOL     OW48907   7.093   5.079   0.411  0.1995 -0.1402  0.0261
15638SOL    HW148908   7.131   5.076   0.498  0.2327  1.0546  0.0701
15638SOL    HW248909   7.127   5.159   0.372  0.7683 -1.0177 -1.3742
15639SOL     OW48910   7.403   6.938   4.461 -0.1527  0.0162  0.4561
15639SOL    HW148911   7.385   7.032   4.462  1.0131  0.2629 -0.0075
15639SOL    HW248912   7.427   6.919   4.370 -1.0795 -0.8786  0.3856
15640SOL     OW48913   5.612   4.523   1.269  0.1928 -0.0354  0.1472
15640SOL    HW148914   5.705   4.549   1.270  0.3534 -0.5730 -0.3643
15640SOL    HW248915   5.564   4.606   1.269  0.7005  0.2933 -1.5390
15641SOL     OW48916   2.699   5.446   2.450 -0.2823 -0.6983  0.7547
15641SOL    HW148917   2.782   5.432   2.495 -0.4631 -1.1140  0.9599
15641SOL    HW248918   2.723   5.490   2.368  0.1125 -0.5940  0.9259
15642SOL     OW48919   7.691   1.166   0.333  0.1825  0.1027 -0.3682
15642SOL    HW148920   7.667   1.131   0.247  2.1399  1.7476 -1.6680
15642SOL    HW248921   7.641   1.247   0.340 -0.8917 -0.6015  0.6519
15643SOL     OW48922   7.646   6.551   7.673  0.3694 -0.2116 -0.2956
15643SOL    HW148923   7.698   6.490   7.620 -0.9258 -1.0849 -0.6185
15643SOL    HW248924   7.693   6.558   7.755  2.1707  0.7840 -1.3657
15644SOL     OW48925   6.791   0.239   8.467  0.1817 -0.4022 -0.0404
15644SOL    HW148926   6.703   0.239   8.506 -0.0124 -2.5909 -0.3822
15644SOL    HW248927   6.850   0.231   8.542  0.0151 -0.5446  0.0746
15645SOL     OW48928   2.166   4.507   8.673  0.1826 -0.1971  0.5693
15645SOL    HW148929   2.139   4.418   8.697  1.2230 -1.1646 -1.5515
15645SOL    HW248930   2.202   4.498   8.585 -0.2049  2.4562  0.0550
15646SOL     OW48931   5.931   4.982   8.304 -0.2200  0.3929  0.0849
15646SOL    HW148932   5.864   4.928   8.347 -0.1363  1.0019  0.9954
15646SOL    HW248933   6.004   4.922   8.289 -1.1607 -0.4501 -1.4941
15647SOL     OW48934   5.709   1.074   0.222 -0.5621 -0.1563 -0.1228
15647SOL    HW148935   5.719   1.163   0.256  0.3645  0.0867 -0.9742
15647SOL    HW248936   5.657   1.028   0.288  0.7254  0.4407  1.3543
15648SOL     OW48937   1.736   5.090   4.092 -0.0858  0.3887  0.1466
15648SOL    HW148938   1.813   5.143   4.072  0.7978 -1.3771 -1.5374
15648SOL    HW248939   1.667   5.153   4.112  1.0766  2.1298 -1.0912
15649SOL     OW48940   1.963   5.208   4.071  0.1276 -0.4045 -0.1809
15649SOL    HW148941   1.970   5.303   4.064  0.0314 -0.3987 -0.2100
15649SOL    HW248942   2.039   5.181   4.123 -0.4293 -0.2000  0.7597
15650SOL     OW48943   5.706   1.975   8.231  0.1174 -0.2007 -0.5257
15650SOL    HW148944   5.801   1.977   8.221  0.2971 -1.9212  0.4405
15650SOL    HW248945   5.690   2.014   8.317  0.2077 -2.0941  0.4046
15651SOL     OW48946   5.892   7.724   4.453  0.4731 -0.0202  0.3726
15651SOL    HW148947   5.803   7.759   4.463  0.0736 -1.1481  1.0305
15651SOL    HW248948   5.885   7.659   4.383  1.0101  0.5920 -0.2570
15652SOL     OW48949   1.579   3.257   3.499 -0.2469 -0.1936 -0.0448
15652SOL    HW148950   1.605   3.166   3.483  3.8462  0.3822  2.1770
15652SOL    HW248951   1.603   3.302   3.418 -0.0331 -0.7060 -0.2783
15653SOL     OW48952   3.954   5.379   0.143  0.5537 -0.3144 -0.2084
15653SOL    HW148953   3.863   5.381   0.172  0.2876  3.9244 -0.6433
15653SOL    HW248954   3.949   5.390   0.048  1.5196 -1.4463 -0.4070
15654SOL     OW48955   6.618   1.530   1.175 -0.7357  0.1540  0.1073
15654SOL    HW148956   6.537   1.582   1.180 -0.3194  0.8231 -0.0606
15654SOL    HW248957   6.672   1.563   1.247 -1.0067 -1.0022  0.8817
15655SOL     OW48958   4.122   6.107   3.985 -0.0371 -0.2697 -0.1129
15655SOL    HW148959   4.030   6.126   4.006 -0.4900 -0.0947 -2.0827
15655SOL    HW248960   4.164   6.192   3.985  0.1043 -0.3309  0.6001
15656SOL     OW48961   5.014   4.309   7.448 -0.4524 -0.6505  0.7421
15656SOL    HW148962   5.105   4.278   7.446  0.0471  0.7116  1.2102
15656SOL    HW248963   5.014   4.380   7.512 -1.5969  0.1548 -0.1084
15657SOL     OW48964   4.543   6.308   0.555 -0.6309 -0.5820  0.2098
15657SOL    HW148965   4.569   6.217   0.538 -1.9902 -1.1794  1.1870
15657SOL    HW248966   4.509   6.339   0.471 -0.4499 -1.0839 -0.0545
15658SOL     OW48967   5.170   0.937   0.394 -0.0115 -0.7093 -0.0732
15658SOL    HW148968   5.228   0.946   0.319  0.9707  1.1771  0.8483
15658SOL    HW248969   5.214   0.875   0.452  1.7149  1.4397  1.0747
15659SOL     OW48970   3.244   1.853   1.324 -0.3616 -0.0408  0.2804
15659SOL    HW148971   3.270   1.894   1.407  0.8303 -2.1292  1.0229
15659SOL    HW248972   3.307   1.781   1.313 -0.3129  0.3313 -2.5981
15660SOL     OW48973   2.039   3.208   6.165  0.3759  0.3246 -0.1824
15660SOL    HW148974   2.108   3.254   6.214  1.1002 -0.7728 -0.1221
15660SOL    HW248975   2.056   3.231   6.074 -0.8339  2.1873  0.0162
15661SOL     OW48976   1.751   2.658   7.300 -0.0061  0.4150  0.6406
15661SOL    HW148977   1.696   2.582   7.317  2.4342 -1.6455 -0.1104
15661SOL    HW248978   1.693   2.720   7.255 -1.7644 -1.5161  0.0946
15662SOL     OW48979   5.744   0.109   2.522 -0.2509 -0.3142 -0.2582
15662SOL    HW148980   5.735   0.023   2.480 -1.7819  0.5125 -1.7832
15662SOL    HW248981   5.717   0.171   2.454  0.7015  1.3722  0.8447
15663SOL     OW48982   2.412   0.998   6.120  0.5706  0.3741  0.6452
15663SOL    HW148983   2.489   0.981   6.066  1.1117  0.6636  1.3057
15663SOL    HW248984   2.399   1.093   6.114 -3.7435 -0.0181 -4.8086
15664SOL     OW48985   0.346   4.231   6.030 -0.3629  0.1658  0.0521
15664SOL    HW148986   0.362   4.239   5.935 -0.0462 -1.7849 -0.0878
15664SOL    HW248987   0.276   4.295   6.047 -1.1774 -0.1805 -1.6996
15665SOL     OW48988   1.119   6.337   6.815  0.4537  0.1777 -0.3317
15665SOL    HW148989   1.149   6.389   6.889  1.1219  0.3029 -0.6861
15665SOL    HW248990   1.068   6.398   6.762 -0.6894 -0.0998  0.4019
15666SOL     OW48991   8.294   8.173   7.814 -0.3537 -0.1283 -0.1076
15666SOL    HW148992   8.295   8.160   7.909  2.7887 -0.7674 -0.1076
15666SOL    HW248993   8.202   8.166   7.790 -1.2430 -0.1049  2.8526
15667SOL     OW48994   1.933   5.153   0.934  0.3429  0.0319 -0.0382
15667SOL    HW148995   1.927   5.243   0.903  0.2355 -0.6258 -2.0842
15667SOL    HW248996   1.861   5.108   0.889  0.3074 -1.0595  1.0608
15668SOL     OW48997   4.459   8.851   5.200  0.2826 -0.1941  0.3755
15668SOL    HW148998   4.412   8.924   5.160 -1.4714 -1.0664  0.7781
15668SOL    HW248999   4.399   8.777   5.192  2.0576 -1.6569 -0.1449
15669SOL     OW49000   0.915   0.239   5.819  0.3263 -0.1631  0.2842
15669SOL    HW149001   0.846   0.303   5.799 -0.7179 -0.8746  1.4368
15669SOL    HW249002   0.975   0.245   5.745 -0.1129  1.6313  0.0124
15670SOL     OW49003   5.723   3.662   0.106  0.3818  0.2456 -0.4439
15670SOL    HW149004   5.745   3.737   0.051  0.4215  0.8960  0.4232
15670SOL    HW249005   5.631   3.643   0.086  0.9860 -0.9664 -2.3409
15671SOL     OW49006   7.334   2.067   1.358  0.4354 -0.1520  0.4570
15671SOL    HW149007   7.277   1.992   1.345 -0.0670 -0.0188  1.7164
15671SOL    HW249008   7.279   2.143   1.340  0.5677 -0.0519  0.4691
15672SOL     OW49009   2.844   5.223   7.597 -0.0586  0.7644  0.0760
15672SOL    HW149010   2.791   5.148   7.622 -0.7826  0.4944 -2.0604
15672SOL    HW249011   2.903   5.190   7.528  1.1431  1.6581  0.6362
15673SOL     OW49012   4.953   5.283   0.718  0.9425  0.4392  0.0391
15673SOL    HW149013   4.861   5.275   0.743  1.1564 -2.8684  0.1988
15673SOL    HW249014   4.953   5.277   0.623  1.0561 -0.9284  0.1144
15674SOL     OW49015   7.392   3.981   6.365  0.3045  0.9103 -0.7258
15674SOL    HW149016   7.475   3.965   6.409  0.2489 -0.0291 -0.9421
15674SOL    HW249017   7.329   3.926   6.412 -0.8374  3.7482  1.3253
15675SOL     OW49018   5.969   3.392   6.990 -0.4187  0.5255  0.6496
15675SOL    HW149019   6.064   3.396   6.975 -0.6679  0.6701 -1.0429
15675SOL    HW249020   5.957   3.434   7.075  1.1275 -0.3486  1.3538
15676SOL     OW49021   6.719   7.669   4.540 -0.4555  0.0145  0.1899
15676SOL    HW149022   6.809   7.637   4.540 -1.4552 -3.1958 -0.3508
15676SOL    HW249023   6.707   7.708   4.453  0.4454  0.6713  0.3468
15677SOL     OW49024   5.733   4.927   0.437 -0.3002 -0.4934  0.2542
15677SOL    HW149025   5.822   4.925   0.403 -1.0808 -2.6365 -1.9347
15677SOL    HW249026   5.722   4.844   0.483 -1.5599 -0.8637 -0.6720
15678SOL     OW49027   0.777   8.439   6.026 -0.2892 -0.8356 -0.8943
15678SOL    HW149028   0.869   8.423   6.007 -0.2345 -1.1955 -0.3494
15678SOL    HW249029   0.758   8.383   6.101 -0.5784  0.2830 -0.1073
15679SOL     OW49030   1.568   6.383   2.621 -0.0721 -0.5042 -0.1384
15679SOL    HW149031   1.600   6.295   2.604 -0.2790 -0.8595  1.2202
15679SOL    HW249032   1.578   6.395   2.715 -1.9895  0.1393  0.0191
15680SOL     OW49033   5.212   6.045   5.665 -0.2286 -0.3237  0.1275
15680SOL    HW149034   5.240   6.096   5.589  0.6930 -0.0534  0.6256
15680SOL    HW249035   5.264   5.965   5.660 -0.1194 -0.2779  0.5021
15681SOL     OW49036   4.276   6.215   3.336 -0.2432 -0.3150 -0.2075
15681SOL    HW149037   4.186   6.187   3.350 -0.1632  0.6768  3.0606
15681SOL    HW249038   4.324   6.183   3.413  2.4293 -1.5118 -2.2114
15682SOL     OW49039   7.134   7.096   1.476 -0.0235  0.4909  0.5462
15682SOL    HW149040   7.143   7.096   1.380  0.7416 -0.0650  0.6053
15682SOL    HW249041   7.063   7.157   1.494 -1.2084 -0.5458 -0.4799
15683SOL     OW49042   8.542   7.865   7.422 -0.6049 -0.3461 -0.1590
15683SOL    HW149043   8.608   7.843   7.356 -1.3492  0.2327 -1.1238
15683SOL    HW249044   8.486   7.787   7.427 -1.3740  0.1288 -1.2488
15684SOL     OW49045   2.718   1.343   7.745  0.3849 -0.1796  0.0254
15684SOL    HW149046   2.685   1.372   7.660  0.5434  1.6786  0.5698
15684SOL    HW249047   2.756   1.257   7.727 -1.2445 -0.6668 -1.3925
15685SOL     OW49048   4.861   5.576   7.311  0.3759  1.1654 -0.2546
15685SOL    HW149049   4.823   5.663   7.323 -1.4567  0.5031 -0.8771
15685SOL    HW249050   4.829   5.525   7.386 -0.8818  0.3343 -1.2956
15686SOL     OW49051   4.862   2.662   4.257  0.6573 -0.0143 -0.2359
15686SOL    HW149052   4.953   2.632   4.253  0.6127 -0.3814  0.9584
15686SOL    HW249053   4.839   2.656   4.350 -0.6596 -0.1428 -0.5446
15687SOL     OW49054   4.106   7.905   0.498 -0.4222 -0.0130 -0.7397
15687SOL    HW149055   4.015   7.936   0.492  0.1785  2.2101  0.3891
15687SOL    HW249056   4.132   7.927   0.588  1.2449 -0.5988 -1.0568
15688SOL     OW49057   8.018   8.077   5.523  0.2768  1.2209 -0.1298
15688SOL    HW149058   8.076   8.058   5.596 -0.7648  1.1253  0.6945
15688SOL    HW249059   7.945   8.015   5.533 -0.0601  1.4504 -1.0349
15689SOL     OW49060   7.039   2.356   1.703 -0.2298 -0.0254  0.3363
15689SOL    HW149061   6.976   2.314   1.761 -1.0411  0.7520  0.0465
15689SOL    HW249062   7.106   2.290   1.688 -0.7989 -0.7535  0.9276
15690SOL     OW49063   1.961   5.758   2.803 -0.5768 -0.1048 -0.0159
15690SOL    HW149064   1.996   5.788   2.887 -0.2650  2.5677 -0.9998
15690SOL    HW249065   1.889   5.699   2.827  0.3591 -0.4754  2.0835
15691SOL     OW49066   4.796   8.468   3.595  0.1856  0.0804 -0.0843
15691SOL    HW149067   4.813   8.375   3.605  1.5605  0.4722  1.8897
15691SOL    HW249068   4.845   8.495   3.518 -0.3085 -0.8380 -0.7251
15692SOL     OW49069   8.342   1.243   0.914 -0.4582 -0.2368  0.3011
15692SOL    HW149070   8.314   1.250   0.824 -1.5354 -0.6282  0.5955
15692SOL    HW249071   8.266   1.209   0.961  0.3442 -0.8654  1.2033
15693SOL     OW49072   7.220   2.019   0.484 -0.7059  0.0493 -0.5644
15693SOL    HW149073   7.185   2.097   0.441 -1.4206  0.2465  0.3450
15693SOL    HW249074   7.233   2.045   0.575  0.2918 -0.5139 -0.5225
15694SOL     OW49075   1.172   5.033   6.707 -0.1474  0.1195  0.8754
15694SOL    HW149076   1.212   5.072   6.785  0.4861  0.9879  0.1473
15694SOL    HW249077   1.218   4.950   6.694 -0.9712 -0.5349  2.0032
15695SOL     OW49078   4.476   8.364   3.892 -0.0286 -0.5821  0.3665
15695SOL    HW149079   4.565   8.383   3.920  0.5561  0.1664 -1.8098
15695SOL    HW249080   4.463   8.272   3.915  1.1461 -0.6055  1.0339
15696SOL     OW49081   8.808   8.522   1.688  0.4809  0.0757  0.5718
15696SOL    HW149082   8.827   8.615   1.677  0.5011 -0.0655 -0.7574
15696SOL    HW249083   8.728   8.508   1.638 -0.7701 -0.2077  2.5496
15697SOL     OW49084   3.757   5.602   8.266  0.0904  0.4054  0.0733
15697SOL    HW149085   3.679   5.567   8.222 -0.5038  1.7958 -0.0334
15697SOL    HW249086   3.741   5.587   8.359 -1.4357  2.6874  0.2737
15698SOL     OW49087   6.366   0.823   4.879  0.1780 -0.2764  0.1817
15698SOL    HW149088   6.279   0.852   4.850  0.3774 -0.0731 -0.2278
15698SOL    HW249089   6.424   0.897   4.858  0.4293 -0.3643  0.5592
15699SOL     OW49090   5.414   4.136   5.730  0.0961  0.0326 -0.1349
15699SOL    HW149091   5.409   4.086   5.811  1.8822 -0.6946 -0.4052
15699SOL    HW249092   5.461   4.078   5.669 -1.5015  0.4126 -1.8202
15700SOL     OW49093   5.589   8.145   7.441 -0.0458  0.8305 -0.2262
15700SOL    HW149094   5.618   8.076   7.382  0.0170 -0.3635  1.1693
15700SOL    HW249095   5.646   8.219   7.421  0.4754  0.2008 -1.1178
15701SOL     OW49096   4.548   8.765   7.941 -0.1659  0.3003  0.1737
15701SOL    HW149097   4.454   8.749   7.929  0.1515 -1.6480 -0.0117
15701SOL    HW249098   4.585   8.756   7.853  0.5421 -1.8257  0.6389
15702SOL     OW49099   8.665   1.204   0.388  0.7704  0.0220 -0.2573
15702SOL    HW149100   8.607   1.152   0.444 -0.4102  1.5050 -0.0410
15702SOL    HW249101   8.618   1.210   0.305  0.6265  1.1489 -0.1098
15703SOL     OW49102   0.616   5.230   2.649  0.6541  0.0529  0.2006
15703SOL    HW149103   0.593   5.191   2.565  0.8084  0.1149  0.1294
15703SOL    HW249104   0.545   5.292   2.667 -0.3823 -1.3104  1.0276
15704SOL     OW49105   2.261   5.414   2.768 -0.1439 -0.1515 -0.2001
15704SOL    HW149106   2.229   5.496   2.803 -1.7849 -0.5548 -0.6375
15704SOL    HW249107   2.223   5.409   2.680 -0.9342 -1.8070  0.1800
15705SOL     OW49108   4.899   2.858   6.054  0.0952 -0.0561 -0.3034
15705SOL    HW149109   4.883   2.870   5.960 -0.9734 -1.7902 -0.3856
15705SOL    HW249110   4.986   2.895   6.068  0.6183 -0.4801 -2.1392
15706SOL     OW49111   5.129   7.726   2.515  0.4517  0.0499 -0.2480
15706SOL    HW149112   5.165   7.813   2.536 -1.5918  1.1676 -1.1539
15706SOL    HW249113   5.204   7.678   2.479  1.5213  1.5842 -0.1902
15707SOL     OW49114   7.167   5.198   7.271  0.3695  0.8212 -0.0027
15707SOL    HW149115   7.174   5.102   7.271 -0.8887  0.7093 -1.0585
15707SOL    HW249116   7.161   5.221   7.179  2.1181  2.0733  0.1455
15708SOL     OW49117   6.382   6.643   7.879 -0.4206  0.0658 -0.1586
15708SOL    HW149118   6.301   6.626   7.831 -0.5255  1.7556 -0.6560
15708SOL    HW249119   6.438   6.568   7.859 -2.0413 -1.4320  0.6690
15709SOL     OW49120   8.150   3.844   5.411 -0.6130 -0.4386  0.3096
15709SOL    HW149121   8.082   3.889   5.362 -0.1659 -2.8481 -2.8547
15709SOL    HW249122   8.104   3.770   5.453 -0.2446 -1.3000 -0.7469
15710SOL     OW49123   2.970   0.237   7.298 -0.0425 -0.3678 -0.7938
15710SOL    HW149124   3.065   0.229   7.297  0.1120  1.0403  0.4745
15710SOL    HW249125   2.953   0.330   7.311 -1.5712 -0.7836  0.5211
15711SOL     OW49126   0.882   2.001   0.593  0.1324 -0.2826 -0.0123
15711SOL    HW149127   0.862   2.049   0.673 -1.6118 -0.8525 -0.0668
15711SOL    HW249128   0.885   2.069   0.525 -2.0926 -0.1407 -0.0545
15712SOL     OW49129   6.499   6.808   2.460  0.1905 -0.3242 -1.0985
15712SOL    HW149130   6.438   6.818   2.387 -1.7874 -0.1312  0.5041
15712SOL    HW249131   6.446   6.772   2.531  2.0201 -0.4205  0.2874
15713SOL     OW49132   8.570   6.594   8.373 -0.1662  0.2476  0.0147
15713SOL    HW149133   8.503   6.661   8.382 -0.7203 -0.2849 -0.1284
15713SOL    HW249134   8.589   6.567   8.463 -0.5034  0.0443  0.0249
15714SOL     OW49135   6.504   1.845   4.752 -0.6944  0.8944 -0.2807
15714SOL    HW149136   6.588   1.888   4.738 -0.5738  0.5115 -0.7629
15714SOL    HW249137   6.455   1.904   4.810 -0.0495  1.0594  0.0990
15715SOL     OW49138   4.026   2.360   5.920 -0.3723  0.2784  0.4433
15715SOL    HW149139   4.053   2.340   6.009 -0.2597 -0.6772  0.2110
15715SOL    HW249140   3.985   2.279   5.889  1.6388 -0.2401 -1.1359
15716SOL     OW49141   6.469   7.249   0.650  0.1823  0.0205 -0.5754
15716SOL    HW149142   6.559   7.228   0.627 -0.3121 -1.3356 -1.3582
15716SOL    HW249143   6.474   7.282   0.740  1.4495  0.0481 -0.6375
15717SOL     OW49144   4.558   8.804   4.103  0.5217  0.2713  0.0834
15717SOL    HW149145   4.596   8.866   4.166  1.1704 -1.2416  1.2853
15717SOL    HW249146   4.474   8.779   4.142 -0.2729  1.2134 -0.9696
15718SOL     OW49147   8.269   0.057   8.093 -0.2860  0.0802 -0.4440
15718SOL    HW149148   8.225   0.124   8.146 -0.7979  0.5937 -1.4702
15718SOL    HW249149   8.300  -0.008   8.156  0.0522  1.1891  0.5685
15719SOL     OW49150   7.145   4.452   1.825 -0.0243 -0.2765  0.1465
15719SOL    HW149151   7.237   4.447   1.800 -0.6003  0.7022 -2.4757
15719SOL    HW249152   7.121   4.361   1.845  1.5602 -0.4892  1.2392
15720SOL     OW49153   1.959   4.745   1.549 -0.2289 -0.3311 -0.0439
15720SOL    HW149154   1.922   4.816   1.602  0.9500 -1.3041  2.1855
15720SOL    HW249155   1.883   4.702   1.511 -0.9819  2.3750 -1.9561
15721SOL     OW49156   0.192   4.143   8.161  0.3343  0.6219  0.4244
15721SOL    HW149157   0.172   4.237   8.170  1.6426  0.9411  0.1916
15721SOL    HW249158   0.228   4.118   8.246  0.2492  0.3951  0.3938
15722SOL     OW49159   2.747   0.437   3.327 -0.0722  0.2343  0.3977
15722SOL    HW149160   2.821   0.375   3.332 -0.3060 -0.1520 -0.6380
15722SOL    HW249161   2.707   0.433   3.413  0.7437 -0.0253  0.7790
15723SOL     OW49162   4.660   6.464   7.544 -0.1966 -0.2279 -0.0815
15723SOL    HW149163   4.585   6.520   7.562 -0.4822 -1.4043  2.9321
15723SOL    HW249164   4.732   6.503   7.595  0.4329 -0.8238 -0.4985
15724SOL     OW49165   8.174   2.840   2.759 -0.0424 -0.2636 -0.5339
15724SOL    HW149166   8.155   2.872   2.847  1.2079  2.1099 -1.0644
15724SOL    HW249167   8.262   2.871   2.739 -0.2906 -0.7067 -2.6287
15725SOL     OW49168   7.600   3.697   8.063  0.5748 -0.1163  0.1340
15725SOL    HW149169   7.664   3.658   8.123  1.8896  0.3348 -0.9313
15725SOL    HW249170   7.551   3.759   8.116  1.8992  0.4777  0.6865
15726SOL     OW49171   5.821   5.575   3.814 -0.5962  0.0187 -0.2055
15726SOL    HW149172   5.849   5.485   3.800  1.1267  0.4506  0.3229
15726SOL    HW249173   5.733   5.579   3.775 -0.4585 -1.7135 -0.7585
15727SOL     OW49174   0.227   2.153   1.075 -0.5445 -0.4930 -0.2147
15727SOL    HW149175   0.177   2.073   1.058  0.5180 -1.2884  0.3202
15727SOL    HW249176   0.208   2.174   1.166  0.4594 -1.0848  0.1472
15728SOL     OW49177   7.010   7.814   5.042  0.2099  0.9398 -0.2713
15728SOL    HW149178   6.927   7.823   5.090 -0.0101  3.8670 -1.0180
15728SOL    HW249179   6.997   7.737   4.986 -2.1064  1.4195 -0.5130
15729SOL     OW49180   1.188   3.499   1.410 -0.0877  0.2029  0.2555
15729SOL    HW149181   1.160   3.523   1.322 -0.1520 -0.8031 -0.0176
15729SOL    HW249182   1.235   3.416   1.399 -2.9547 -1.7463  1.5246
15730SOL     OW49183   1.489   1.195   8.584  0.2378  0.0799  0.0905
15730SOL    HW149184   1.458   1.108   8.610  1.7727 -0.0550  1.6382
15730SOL    HW249185   1.415   1.233   8.536 -0.1350 -2.4322 -1.5610
15731SOL     OW49186   0.392   2.377   0.434 -0.5377 -0.3121  0.2489
15731SOL    HW149187   0.457   2.383   0.504 -0.0314  0.8872 -0.2926
15731SOL    HW249188   0.352   2.290   0.445  0.4711 -0.6771  1.1791
15732SOL     OW49189   2.225   4.026   8.282 -0.1518 -0.0241  0.0421
15732SOL    HW149190   2.221   4.046   8.188 -2.5143 -0.7130 -0.0623
15732SOL    HW249191   2.316   3.999   8.297  0.4061  0.6054 -1.9256
15733SOL     OW49192   2.180   0.050   1.283  0.4796  0.1536 -0.6198
15733SOL    HW149193   2.273   0.034   1.295  0.3334 -0.3096 -0.0965
15733SOL    HW249194   2.171   0.145   1.290  1.0277  0.2817 -1.5107
15734SOL     OW49195   7.369   6.145   8.159 -0.3212 -0.1226 -0.0519
15734SOL    HW149196   7.448   6.182   8.199 -0.5576 -1.0240  1.3206
15734SOL    HW249197   7.392   6.054   8.141 -0.9612 -0.3158  0.1110
15735SOL     OW49198   1.504   6.249   3.965  0.0197 -0.2118  0.9500
15735SOL    HW149199   1.487   6.155   3.973 -0.3537 -0.4084 -1.3812
15735SOL    HW249200   1.526   6.261   3.873  2.4806  1.6562  1.6785
15736SOL     OW49201   0.364   5.193   7.520 -0.9173 -0.4549  0.2315
15736SOL    HW149202   0.418   5.113   7.525 -0.3611 -0.1472 -0.6687
15736SOL    HW249203   0.279   5.166   7.556 -0.2550 -1.0084  1.4797
15737SOL     OW49204   0.313   3.967   8.853 -0.3222  0.2152  0.2677
15737SOL    HW149205   0.223   3.961   8.821 -0.1757  1.8510 -0.6006
15737SOL    HW249206   0.313   4.045   8.909  0.5868  0.3115  0.1448
15738SOL     OW49207   3.456   7.847   7.575 -0.5582  0.2265 -0.5971
15738SOL    HW149208   3.409   7.915   7.623 -0.7509  0.0440 -0.5254
15738SOL    HW249209   3.548   7.863   7.597 -0.6287  0.2606 -0.3130
15739SOL     OW49210   6.023   2.553   0.673  0.5842  0.2936  0.2132
15739SOL    HW149211   6.091   2.609   0.635  1.1815 -0.6077 -0.0512
15739SOL    HW249212   5.955   2.615   0.701  0.9531  1.1116 -0.6457
15740SOL     OW49213   5.805   1.249   3.770 -0.2408  0.3438  0.5575
15740SOL    HW149214   5.728   1.273   3.823  0.0964 -1.3231  1.8969
15740SOL    HW249215   5.879   1.280   3.821  0.0189  1.0260 -0.2293
15741SOL     OW49216   4.262   1.833   0.283  0.3997 -0.5973  0.2775
15741SOL    HW149217   4.267   1.823   0.188  1.8564 -0.5111  0.3221
15741SOL    HW249218   4.250   1.744   0.315  0.3709 -0.6801  0.0423
15742SOL     OW49219   1.226   8.407   4.775 -0.0620 -0.0694  0.4179
15742SOL    HW149220   1.179   8.368   4.702  0.2683 -0.2214  0.2836
15742SOL    HW249221   1.168   8.476   4.808 -0.4880 -0.4246  0.4183
15743SOL     OW49222   3.514   7.682   6.711  0.2157 -0.1601 -0.1477
15743SOL    HW149223   3.468   7.601   6.688  1.2050 -1.0202  0.7835
15743SOL    HW249224   3.575   7.696   6.638 -0.0509 -0.1727 -0.3752
15744SOL     OW49225   6.790   5.849   8.123 -0.2259 -0.0732  0.2301
15744SOL    HW149226   6.698   5.868   8.140 -0.6526 -1.7490  0.0363
15744SOL    HW249227   6.811   5.896   8.043 -1.1558 -0.3379 -0.1768
15745SOL     OW49228   1.441   6.355   8.751  0.4554  0.2760 -0.1265
15745SOL    HW149229   1.471   6.437   8.790  1.5597 -0.2229  0.1455
15745SOL    HW249230   1.512   6.330   8.691 -0.9824  0.7633 -2.0955
15746SOL     OW49231   5.569   8.687   2.837 -0.4091  0.1304  0.1744
15746SOL    HW149232   5.622   8.705   2.915  1.1511 -1.0829 -0.5394
15746SOL    HW249233   5.633   8.682   2.766 -1.9261  2.6650 -1.5160
15747SOL     OW49234   7.282   6.149   1.258  0.5903 -0.3384 -0.2171
15747SOL    HW149235   7.259   6.105   1.176  0.5430 -0.3158 -0.2160
15747SOL    HW249236   7.350   6.094   1.296  0.3150 -0.5753 -0.0666
15748SOL     OW49237   0.352   0.411   6.900  0.0566 -0.2675  0.1343
15748SOL    HW149238   0.390   0.489   6.940 -0.5870  0.7826 -1.2128
15748SOL    HW249239   0.414   0.341   6.919  0.7759  0.6224  1.1591
15749SOL     OW49240   7.208   4.413   5.430  0.2980 -0.2309  0.3509
15749SOL    HW149241   7.191   4.492   5.378 -0.9987 -0.0921  0.9487
15749SOL    HW249242   7.247   4.351   5.368  0.7831  0.6723 -0.2611
15750SOL     OW49243   6.116   0.559   7.638 -0.3844 -0.2120 -0.0255
15750SOL    HW149244   6.062   0.540   7.714  0.2438 -0.1725  0.4405
15750SOL    HW249245   6.172   0.482   7.628 -1.8187 -1.1031 -1.6737
15751SOL     OW49246   7.806   8.164   5.832  0.0959  0.3941  0.4563
15751SOL    HW149247   7.755   8.127   5.904 -1.4576  1.6168  0.0326
15751SOL    HW249248   7.770   8.122   5.754 -0.4895  1.5005  0.1258
15752SOL     OW49249   6.880   2.386   8.377  0.3078  0.4139  0.5507
15752SOL    HW149250   6.961   2.436   8.375  0.9396 -0.5988 -0.2556
15752SOL    HW249251   6.895   2.318   8.442  0.3084 -0.0923  0.0270
15753SOL     OW49252   3.452   5.022   5.002 -0.1972 -0.4275 -0.0345
15753SOL    HW149253   3.501   5.008   5.083  1.4937 -0.3454 -1.0067
15753SOL    HW249254   3.361   5.003   5.026  0.1732  0.1104  2.0048
15754SOL     OW49255   6.223   3.837   6.034 -0.1279  0.0029 -0.1271
15754SOL    HW149256   6.303   3.890   6.030  1.1924 -1.9978 -2.1730
15754SOL    HW249257   6.154   3.896   6.006  1.0514  1.0666 -0.8887
15755SOL     OW49258   4.002   7.857   7.241  0.2213 -0.3266 -0.4340
15755SOL    HW149259   4.046   7.942   7.248 -1.1403  0.4752 -1.2530
15755SOL    HW249260   3.909   7.877   7.247 -0.1245 -1.8023 -0.4180
15756SOL     OW49261   0.561   8.622   7.010  0.0389 -0.2645 -0.2406
15756SOL    HW149262   0.635   8.560   7.005 -0.0301 -0.3274 -0.4697
15756SOL    HW249263   0.553   8.641   7.104 -0.0982 -0.7961 -0.1404
15757SOL     OW49264   0.761   4.036   5.417 -0.2272  0.1067  0.1319
15757SOL    HW149265   0.702   3.981   5.366 -0.9459 -0.8888  1.9451
15757SOL    HW249266   0.715   4.119   5.425 -1.1373 -0.4577  0.9989
15758SOL     OW49267   7.630   4.130   2.642  0.0519 -0.4479  0.2122
15758SOL    HW149268   7.632   4.069   2.715 -1.5139 -0.4208  0.2985
15758SOL    HW249269   7.664   4.080   2.568  0.4808 -0.8473  0.6711
15759SOL     OW49270   2.153   5.432   8.157 -0.0274 -0.5262 -0.3488
15759SOL    HW149271   2.086   5.401   8.095 -1.4635 -1.6142  1.6526
15759SOL    HW249272   2.111   5.501   8.206  1.2687  0.6662 -0.8406
15760SOL     OW49273   6.765   5.590   0.444 -0.4801 -0.0286 -0.3274
15760SOL    HW149274   6.726   5.661   0.394  0.1245  0.2007 -0.4779
15760SOL    HW249275   6.854   5.582   0.410 -0.4618 -0.6947 -0.1424
15761SOL     OW49276   4.254   6.508   4.371 -0.3055 -0.0582 -0.0110
15761SOL    HW149277   4.292   6.521   4.284  1.5638  0.1589  0.7919
15761SOL    HW249278   4.173   6.461   4.355 -1.5307  2.4673 -2.1282
15762SOL     OW49279   2.561   6.754   6.212 -0.2034 -0.0839  0.4150
15762SOL    HW149280   2.588   6.819   6.277 -0.2623 -0.5350  0.8982
15762SOL    HW249281   2.470   6.733   6.235  0.4425 -1.8711  1.5843
15763SOL     OW49282   8.636   8.183   0.176  0.5190  0.9526  0.0028
15763SOL    HW149283   8.672   8.181   0.087  0.8209  0.8713  0.1270
15763SOL    HW249284   8.600   8.095   0.189  2.8392  0.0669  0.9304
15764SOL     OW49285   7.192   6.358   6.637  0.2955 -0.3590 -0.6563
15764SOL    HW149286   7.183   6.453   6.647 -2.1893 -0.7059  1.7515
15764SOL    HW249287   7.225   6.329   6.722 -0.8239 -1.8013 -0.6856
15765SOL     OW49288   2.388   0.812   3.301 -0.7877  0.4475  0.2537
15765SOL    HW149289   2.421   0.774   3.220 -2.3675 -0.7169  0.1255
15765SOL    HW249290   2.369   0.903   3.279  0.7069  0.6993 -0.1008
15766SOL     OW49291   5.720   2.857   6.402  0.7374  0.0128  0.1053
15766SOL    HW149292   5.644   2.876   6.347 -0.8524  1.0278  2.5099
15766SOL    HW249293   5.749   2.770   6.374 -1.4967 -0.5316 -0.7013
15767SOL     OW49294   3.692   6.773   2.580 -0.2664  0.5254 -0.1962
15767SOL    HW149295   3.729   6.856   2.611  1.4118 -0.5911  0.9538
15767SOL    HW249296   3.717   6.768   2.488  0.3633  0.9270 -0.0525
15768SOL     OW49297   4.451   0.583   3.532 -0.6109 -0.3970 -0.4079
15768SOL    HW149298   4.468   0.496   3.569 -2.3222  0.1189  1.7665
15768SOL    HW249299   4.360   0.580   3.504 -0.4695  0.4937 -1.0208
15769SOL     OW49300   7.239   3.718   6.442  0.4254 -0.2688  0.5662
15769SOL    HW149301   7.184   3.796   6.444  1.0565  0.1772  0.7915
15769SOL    HW249302   7.225   3.681   6.355  1.0033  0.7447  0.0160
15770SOL     OW49303   1.708   8.662   2.267  0.0680  0.0835  0.1364
15770SOL    HW149304   1.694   8.592   2.331  0.7949 -0.6143 -0.4634
15770SOL    HW249305   1.645   8.730   2.293  1.1373  0.3420  2.3326
15771SOL     OW49306   4.161   1.157   3.810  0.2882  0.2645 -0.6079
15771SOL    HW149307   4.093   1.220   3.786  0.3000  0.6404  0.3170
15771SOL    HW249308   4.122   1.072   3.791 -0.0889  0.5090 -0.9648
15772SOL     OW49309   4.638   0.777   1.189 -0.4432  0.1954 -0.2937
15772SOL    HW149310   4.701   0.738   1.250 -0.9912  0.1048  0.2284
15772SOL    HW249311   4.691   0.832   1.132 -0.2418  3.3196  2.5810
15773SOL     OW49312   4.381   7.586   5.880  0.0817  0.4823 -0.1533
15773SOL    HW149313   4.473   7.563   5.866 -0.5165 -0.8699 -2.5734
15773SOL    HW249314   4.362   7.649   5.810 -0.8515  0.6529  0.2432
15774SOL     OW49315   0.113   1.896   6.538 -0.2296 -0.1001  0.6255
15774SOL    HW149316   0.133   1.935   6.452 -1.0634 -0.3537  0.3056
15774SOL    HW249317   0.019   1.876   6.534 -0.4117  0.4452  1.8281
15775SOL     OW49318   2.012   2.464   5.271 -0.2512  0.0865 -0.1666
15775SOL    HW149319   1.964   2.531   5.223 -0.9961 -0.4600 -0.1992
15775SOL    HW249320   2.025   2.393   5.209  1.5036  0.6067 -0.4648
15776SOL     OW49321   7.996   4.450   5.915 -0.8910  0.0033 -0.3243
15776SOL    HW149322   7.979   4.408   5.999 -0.4734 -0.0663 -0.2701
15776SOL    HW249323   8.050   4.387   5.867 -0.6025  0.3038 -0.4001
15777SOL     OW49324   1.177   8.583   3.869  0.4494 -0.7570 -0.1600
15777SOL    HW149325   1.231   8.516   3.911  0.6993 -1.5839 -1.6943
15777SOL    HW249326   1.187   8.661   3.923  0.9163 -1.6974  1.1523
15778SOL     OW49327   5.333   5.152   2.029 -0.0185 -0.6980 -0.2406
15778SOL    HW149328   5.270   5.206   2.075  2.1733  0.9097  1.1062
15778SOL    HW249329   5.399   5.130   2.095  2.7600  0.8649 -2.2224
15779SOL     OW49330   5.566   0.222   7.478  0.4044 -0.2075  0.2879
15779SOL    HW149331   5.558   0.129   7.454  0.9718 -0.2562  0.2845
15779SOL    HW249332   5.581   0.267   7.395  1.6792 -0.2965  0.4539
15780SOL     OW49333   5.455   1.377   4.761  0.0159  0.1908  0.1704
15780SOL    HW149334   5.446   1.296   4.712  1.0542  0.4001 -0.3975
15780SOL    HW249335   5.399   1.365   4.838 -1.7707 -0.0891 -1.1065
15781SOL     OW49336   5.195   0.628   4.085 -0.6167  0.5303 -0.0436
15781SOL    HW149337   5.220   0.583   4.166 -0.5983 -0.1131 -0.3995
15781SOL    HW249338   5.254   0.593   4.018 -1.4567  0.1070 -0.5897
15782SOL     OW49339   8.859   8.566   8.346  0.1672 -0.1351  0.1833
15782SOL    HW149340   8.858   8.470   8.350 -0.5455 -0.0972  1.5022
15782SOL    HW249341   8.923   8.587   8.278  1.0412 -1.5274  0.5483
15783SOL     OW49342   5.332   6.964   8.048  0.1350  0.2135  0.0353
15783SOL    HW149343   5.293   7.051   8.058  0.1193  0.2096  0.0074
15783SOL    HW249344   5.314   6.920   8.131 -0.1182  0.1319 -0.0621
15784SOL     OW49345   4.080   2.688   8.433  0.0661  0.0517  0.0059
15784SOL    HW149346   4.039   2.767   8.397 -1.0872 -0.2671  0.5914
15784SOL    HW249347   4.159   2.676   8.379 -0.8474  0.3992 -1.4732
15785SOL     OW49348   3.657   1.544   2.306 -0.6737 -0.1593  0.3279
15785SOL    HW149349   3.633   1.582   2.391 -2.1879  0.8078 -0.5058
15785SOL    HW249350   3.700   1.615   2.259  0.8955 -0.9222  0.5375
15786SOL     OW49351   1.485   5.101   5.403  0.5734  0.1719  0.4167
15786SOL    HW149352   1.450   5.012   5.396  0.2596  0.2325  1.0740
15786SOL    HW249353   1.478   5.122   5.497 -0.8981  1.5091  0.0454
15787SOL     OW49354   8.475   4.327   1.560  0.3760 -0.2573 -0.0464
15787SOL    HW149355   8.479   4.288   1.647 -1.3155 -1.3263 -0.4066
15787SOL    HW249356   8.472   4.421   1.576 -0.3064 -0.4586  1.0669
15788SOL     OW49357   8.875   0.340   3.474 -0.7627  0.1778  0.0654
15788SOL    HW149358   8.792   0.293   3.475 -0.7893  0.2017 -0.8703
15788SOL    HW249359   8.934   0.285   3.424  0.2999 -0.6571  2.1289
15789SOL     OW49360   3.126   8.843   3.991 -0.4732  0.1290  0.0334
15789SOL    HW149361   3.210   8.882   4.014  0.7056 -1.2593 -1.6360
15789SOL    HW249362   3.123   8.846   3.895 -0.8819 -2.6021 -0.1387
15790SOL     OW49363   3.292   2.947   0.335 -0.4241  0.1878  0.1440
15790SOL    HW149364   3.241   2.868   0.353 -0.1940  0.3855  1.8540
15790SOL    HW249365   3.239   2.997   0.274 -0.6112 -1.2359 -0.9143
15791SOL     OW49366   7.439   0.507   7.018 -0.7162  0.0432  0.0411
15791SOL    HW149367   7.528   0.498   6.986 -0.2348 -0.8361  1.5315
15791SOL    HW249368   7.433   0.597   7.049 -1.4065  1.1607 -2.9190
15792SOL     OW49369   4.307   6.004   0.640 -0.0043 -0.1726 -0.9294
15792SOL    HW149370   4.329   5.984   0.549  0.6216 -0.8674 -0.6385
15792SOL    HW249371   4.239   6.071   0.634  0.6602  0.4377 -1.8847
15793SOL     OW49372   5.130   1.057   1.672 -0.5963 -0.2170 -0.0229
15793SOL    HW149373   5.143   1.048   1.767 -0.5517 -0.3876 -0.0446
15793SOL    HW249374   5.194   0.997   1.633 -0.4951 -0.0170 -0.1664
15794SOL     OW49375   3.571   2.050   4.013  0.1751  0.5148  0.0049
15794SOL    HW149376   3.660   2.019   4.025  1.3452  1.9556 -3.6098
15794SOL    HW249377   3.519   1.998   4.074  2.8827 -3.3653 -0.6428
15795SOL     OW49378   5.849   3.707   3.818 -0.2402 -0.5683 -0.2054
15795SOL    HW149379   5.940   3.676   3.811 -0.5101 -1.3336 -0.5308
15795SOL    HW249380   5.796   3.627   3.809 -0.9546 -0.0855 -0.4099
15796SOL     OW49381   4.987   2.092   7.229 -0.7065 -0.0104  0.5705
15796SOL    HW149382   5.006   2.089   7.135  2.8525 -0.4602  1.1513
15796SOL    HW249383   5.038   2.167   7.261 -0.1736 -1.0770  2.3890
15797SOL     OW49384   6.707   3.258   8.877 -0.0142 -0.6134 -0.2045
15797SOL    HW149385   6.674   3.342   8.846  2.2237  0.3060 -0.2902
15797SOL    HW249386   6.638   3.196   8.856 -3.4994  1.6140  3.2022
15798SOL     OW49387   6.559   1.175   5.834  0.0693 -0.0467 -0.9321
15798SOL    HW149388   6.517   1.183   5.749  0.5596 -0.9629 -1.2749
15798SOL    HW249389   6.555   1.082   5.855 -0.5208  0.2272  0.3019
15799SOL     OW49390   3.807   0.370   5.173 -0.0386  0.2618  0.2350
15799SOL    HW149391   3.834   0.426   5.100 -0.8369 -0.3306 -0.5428
15799SOL    HW249392   3.712   0.364   5.164  0.0088 -1.0325  0.4216
15800SOL     OW49393   7.279   5.564   3.094  0.6114  0.3549  0.2402
15800SOL    HW149394   7.369   5.577   3.123  0.6910  0.9685 -0.2634
15800SOL    HW249395   7.225   5.590   3.168  0.8341  0.6701  0.2906
15801SOL     OW49396   1.557   6.107   5.593 -0.2856 -0.3435  0.5733
15801SOL    HW149397   1.616   6.167   5.548 -0.5712  0.6734  1.5117
15801SOL    HW249398   1.491   6.164   5.634  0.1466 -1.1829  2.5397
15802SOL     OW49399   5.801   1.827   3.406  0.3925 -0.2048 -0.3856
15802SOL    HW149400   5.730   1.804   3.466  0.7876  0.9896  0.5747
15802SOL    HW249401   5.839   1.743   3.380 -0.5248 -0.7903  0.1162
15803SOL     OW49402   2.341   7.241   7.357 -0.5573 -0.1737  0.9369
15803SOL    HW149403   2.396   7.311   7.390 -0.6674  0.2535  0.2288
15803SOL    HW249404   2.296   7.207   7.434  1.5931 -1.3672  1.7714
15804SOL     OW49405   2.342   0.990   0.084 -0.2797 -0.9757 -0.3881
15804SOL    HW149406   2.415   1.051   0.095 -0.3630 -0.5606 -1.9381
15804SOL    HW249407   2.364   0.916   0.140  0.2272  0.1076  0.8882
15805SOL     OW49408   7.572   8.348   6.816 -0.6332 -0.4439 -0.0566
15805SOL    HW149409   7.579   8.253   6.814  0.4363 -0.4539  1.8581
15805SOL    HW249410   7.660   8.378   6.841 -0.3080  1.2107 -2.7132
15806SOL     OW49411   0.169   1.025   8.031  0.2718  0.3197 -0.3989
15806SOL    HW149412   0.142   0.989   7.946  2.0531 -0.1742 -0.8100
15806SOL    HW249413   0.171   0.950   8.090  2.5307 -0.0924 -0.8823
15807SOL     OW49414   6.561   4.359   4.015  0.5720 -0.7722 -0.5664
15807SOL    HW149415   6.645   4.355   3.970  1.1561 -1.1485  0.5291
15807SOL    HW249416   6.580   4.403   4.098 -0.0007 -2.1814  0.3474
15808SOL     OW49417   6.234   1.855   4.408  0.4627  0.3699  0.0909
15808SOL    HW149418   6.219   1.907   4.487 -2.6070  2.7390 -1.8231
15808SOL    HW249419   6.312   1.892   4.368 -0.7632  2.5625 -0.4051
15809SOL     OW49420   2.268   7.655   6.158  0.2736 -0.5004 -0.3697
15809SOL    HW149421   2.201   7.717   6.186  0.2361 -0.8218  0.2799
15809SOL    HW249422   2.312   7.630   6.240  0.4157 -1.1738 -0.6490
15810SOL     OW49423   4.299   3.351   8.183 -0.3101 -0.5263  0.1821
15810SOL    HW149424   4.226   3.332   8.242 -0.6958  0.3518  0.0105
15810SOL    HW249425   4.258   3.390   8.106  0.3312 -0.0210  0.0867
15811SOL     OW49426   5.840   2.035   7.203  0.1939 -0.1780  0.3443
15811SOL    HW149427   5.760   1.994   7.238 -0.0977  1.1831  1.3795
15811SOL    HW249428   5.864   2.099   7.269 -0.4674  2.6856 -1.9836
15812SOL     OW49429   1.282   5.338   7.815  0.2093  0.1738  0.0610
15812SOL    HW149430   1.244   5.426   7.826  1.0364  0.4976  0.4292
15812SOL    HW249431   1.309   5.312   7.903 -0.1552 -0.5175 -0.0260
15813SOL     OW49432   8.108   3.427   8.605  0.2422 -0.2048 -0.1451
15813SOL    HW149433   8.135   3.518   8.613 -2.4781  0.5605  1.2942
15813SOL    HW249434   8.164   3.379   8.666  2.1396  0.3121 -1.3826
15814SOL     OW49435   1.548   2.000   0.197 -0.0626 -0.3367 -0.0400
15814SOL    HW149436   1.546   1.937   0.124  0.1680  0.4416 -0.7310
15814SOL    HW249437   1.455   2.013   0.219 -0.1111 -0.9280  0.1197
15815SOL     OW49438   2.999   4.067   8.745  0.3260  0.4087  0.3785
15815SOL    HW149439   3.074   4.064   8.686  1.2484  1.2897  1.4746
15815SOL    HW249440   2.923   4.070   8.687  0.8595 -3.4022 -0.8288
15816SOL     OW49441   6.703   4.212   6.165 -0.6694  0.1686 -0.2628
15816SOL    HW149442   6.728   4.302   6.146  0.8166 -0.1863 -0.1289
15816SOL    HW249443   6.742   4.160   6.095  1.0233 -0.6531  1.1882
15817SOL     OW49444   3.566   0.355   0.030  0.6012 -0.1039 -0.2162
15817SOL    HW149445   3.625   0.296  -0.017 -0.3539 -1.6472  0.4329
15817SOL    HW249446   3.483   0.306   0.036 -0.5898  1.7628 -0.6108
15818SOL     OW49447   0.473   5.030   6.179  0.5378 -0.0810  0.3695
15818SOL    HW149448   0.461   5.121   6.151 -0.8753 -0.1947  0.5333
15818SOL    HW249449   0.527   4.991   6.110  0.1306  0.5806 -0.3406
15819SOL     OW49450   3.171   5.439   6.330 -0.0961  0.0105  0.3608
15819SOL    HW149451   3.230   5.365   6.315  1.6114  1.1401  1.1984
15819SOL    HW249452   3.138   5.425   6.419 -0.5803 -0.2690  0.1404
15820SOL     OW49453   5.368   6.661   8.361  0.5443 -0.2691 -0.0320
15820SOL    HW149454   5.338   6.633   8.274 -0.2787 -1.7552  0.6985
15820SOL    HW249455   5.306   6.621   8.422  1.4540  0.2692  1.2938
15821SOL     OW49456   8.273   8.340   5.196 -0.6146  0.1426 -0.0493
15821SOL    HW149457   8.261   8.264   5.139 -2.3654  0.5528 -0.2769
15821SOL    HW249458   8.324   8.307   5.270 -0.2409 -0.9281 -0.7612
15822SOL     OW49459   6.424   0.060   3.307  0.2800 -0.3060  0.0013
15822SOL    HW149460   6.470  -0.019   3.278 -1.4561 -0.9557 -1.2489
15822SOL    HW249461   6.332   0.034   3.308 -0.2484  1.4451  0.4942
15823SOL     OW49462   6.267   3.325   2.775  0.1391 -0.4139 -0.4680
15823SOL    HW149463   6.334   3.325   2.844  2.1419 -1.2657 -2.3012
15823SOL    HW249464   6.315   3.303   2.695 -1.8364  1.7557 -2.4032
15824SOL     OW49465   4.812   6.761   1.440 -0.4229 -0.5205  0.2650
15824SOL    HW149466   4.907   6.761   1.450 -0.2682 -2.4496 -0.8567
15824SOL    HW249467   4.797   6.797   1.352 -0.8130  0.5428  0.7428
15825SOL     OW49468   4.913   6.312   6.464 -0.2779 -0.0915 -0.1263
15825SOL    HW149469   4.936   6.333   6.555  0.3529 -0.8540 -0.0954
15825SOL    HW249470   4.857   6.234   6.471  0.8933 -0.9873 -0.4469
15826SOL     OW49471   2.404   7.015   0.124  0.3083 -0.3597  0.0214
15826SOL    HW149472   2.452   7.075   0.181  0.6098 -0.9580  0.4075
15826SOL    HW249473   2.447   7.023   0.039  0.7546 -0.5001  0.2324
15827SOL     OW49474   0.973   4.782   0.675 -0.1718 -0.4912  0.1669
15827SOL    HW149475   1.025   4.735   0.741  0.7010 -2.0078 -1.4975
15827SOL    HW249476   0.895   4.727   0.663 -0.6601  0.1396  0.4209
15828SOL     OW49477   7.645   2.123   6.185  0.6453  0.0770  0.4557
15828SOL    HW149478   7.634   2.192   6.119  0.6553 -1.3236 -1.0635
15828SOL    HW249479   7.627   2.042   6.138 -0.3862 -0.9169  2.4507
15829SOL     OW49480   4.898   8.082   6.202  0.4775 -0.4379 -0.1683
15829SOL    HW149481   4.986   8.117   6.185  0.0080  0.2458 -1.2954
15829SOL    HW249482   4.848   8.158   6.232 -0.0724 -0.5270 -0.8347
15830SOL     OW49483   2.475   1.862   4.534  0.1832 -0.4250  0.1678
15830SOL    HW149484   2.536   1.842   4.606  0.5185 -1.0258 -0.2798
15830SOL    HW249485   2.458   1.778   4.493 -1.8202 -0.4438  0.9426
15831SOL     OW49486   1.763   2.044   6.260 -0.2835 -0.1579  0.1749
15831SOL    HW149487   1.850   2.043   6.221  0.0024 -1.1428  0.8160
15831SOL    HW249488   1.779   2.065   6.352 -0.6533 -1.0318  0.4436
15832SOL     OW49489   7.973   7.281   0.357  0.4163 -0.1858  0.4234
15832SOL    HW149490   7.931   7.253   0.438 -0.6219 -1.0281 -0.3620
15832SOL    HW249491   8.037   7.212   0.338  0.1256 -0.3885  0.1545
15833SOL     OW49492   3.578   7.838   7.094 -0.3936  0.0707 -0.0219
15833SOL    HW149493   3.635   7.912   7.116  0.1006 -0.7467  1.5646
15833SOL    HW249494   3.576   7.784   7.173 -0.6317 -1.6957 -1.1697
15834SOL     OW49495   4.007   2.596   7.633  0.1798 -0.2351  0.2502
15834SOL    HW149496   3.968   2.515   7.665 -0.1493 -0.4089 -0.5570
15834SOL    HW249497   4.001   2.589   7.537  0.7299  0.4558  0.1573
15835SOL     OW49498   8.346   3.364   1.033  0.1107 -0.2955 -0.0197
15835SOL    HW149499   8.430   3.405   1.010 -0.1957  0.2056 -0.2657
15835SOL    HW249500   8.354   3.345   1.126 -0.1414  1.3403  0.3708
15836SOL     OW49501   7.177   7.439   3.944 -0.3704  0.8989 -0.5275
15836SOL    HW149502   7.196   7.346   3.939  0.8770  1.1025  0.1095
15836SOL    HW249503   7.117   7.455   3.871 -2.6012 -0.8461  0.7870
15837SOL     OW49504   1.762   3.149   6.184 -0.1986 -0.1939  0.8834
15837SOL    HW149505   1.738   3.149   6.277  1.1778 -0.9608  1.2683
15837SOL    HW249506   1.848   3.191   6.182 -0.7809  1.0264 -0.2408
15838SOL     OW49507   3.503   5.906   7.138  0.0010 -0.4317 -0.0020
15838SOL    HW149508   3.587   5.903   7.093  0.6073 -0.2669  1.1120
15838SOL    HW249509   3.510   5.841   7.208 -1.5857 -1.9962 -1.1904
15839SOL     OW49510   2.340   7.868   5.577 -0.7952 -0.1472  0.2469
15839SOL    HW149511   2.291   7.825   5.647  1.8693 -0.4854  2.0515
15839SOL    HW249512   2.309   7.959   5.579 -0.7721 -0.1456  1.9264
15840SOL     OW49513   4.139   0.209   1.129 -0.2314  0.0744 -0.0334
15840SOL    HW149514   4.137   0.162   1.212  0.6286 -0.4834 -0.3141
15840SOL    HW249515   4.232   0.220   1.110 -0.4116 -0.0606 -1.0529
15841SOL     OW49516   7.495   1.641   3.633 -0.5723 -0.1014  0.2807
15841SOL    HW149517   7.548   1.620   3.556  1.2476 -2.6727  2.0473
15841SOL    HW249518   7.408   1.606   3.614 -0.6782  0.9207 -1.2550
15842SOL     OW49519   3.902   1.008   0.614 -0.2110  0.1517  0.1200
15842SOL    HW149520   3.901   0.958   0.532  0.0467  1.3210 -0.6283
15842SOL    HW249521   3.843   1.082   0.596 -1.8071 -0.6499  1.7237
15843SOL     OW49522   2.049   3.888   4.147 -0.3597 -0.3370 -0.1487
15843SOL    HW149523   2.005   3.971   4.164  1.8278  1.1836 -1.4935
15843SOL    HW249524   2.002   3.850   4.073  0.1067  0.9149 -1.1093
15844SOL     OW49525   3.069   1.429   6.360  0.5456 -0.1933  0.3133
15844SOL    HW149526   3.016   1.351   6.343 -1.2148  0.7512  1.2737
15844SOL    HW249527   3.158   1.403   6.333 -0.6107 -1.3099 -2.8479
15845SOL     OW49528   8.084   2.480   0.605  0.0828 -0.7106  0.4656
15845SOL    HW149529   8.059   2.518   0.521  0.8367 -2.4614 -0.6128
15845SOL    HW249530   8.074   2.551   0.668  2.1759  1.5470 -1.5280
15846SOL     OW49531   1.559   6.141   6.201 -0.5042 -0.1753  0.3578
15846SOL    HW149532   1.489   6.136   6.135  0.0634  1.3239 -0.4019
15846SOL    HW249533   1.574   6.235   6.213  1.3234 -0.4602  0.5672
15847SOL     OW49534   5.714   2.144   4.496 -0.1229 -0.7406  0.6776
15847SOL    HW149535   5.691   2.205   4.566 -0.9067  0.6555 -0.7381
15847SOL    HW249536   5.799   2.109   4.522  0.2223  0.7408  1.6721
15848SOL     OW49537   5.635   6.820   8.613 -0.0217 -0.2323 -0.4415
15848SOL    HW149538   5.665   6.889   8.673  1.6401 -0.6239 -0.7669
15848SOL    HW249539   5.607   6.749   8.670 -0.9112  0.3558 -0.1166
15849SOL     OW49540   2.254   8.149   2.258  0.1840 -0.0901 -0.5366
15849SOL    HW149541   2.189   8.102   2.206  0.2124  0.8996 -1.5262
15849SOL    HW249542   2.224   8.240   2.257  1.7377  0.4633 -1.3265
15850SOL     OW49543   1.226   3.728   2.701  0.4838 -0.3531 -0.0899
15850SOL    HW149544   1.308   3.744   2.747  0.9052  0.1126 -0.9600
15850SOL    HW249545   1.227   3.635   2.680  0.2588 -0.5816  0.8682
15851SOL     OW49546   7.132   4.360   3.003 -0.1662 -0.0475 -0.2983
15851SOL    HW149547   7.190   4.334   3.075 -0.9261 -0.1085  0.3047
15851SOL    HW249548   7.097   4.445   3.030  0.1743  0.3166 -0.9836
15852SOL     OW49549   8.028   4.750   4.953  0.3056  0.6205 -1.0116
15852SOL    HW149550   7.969   4.788   5.018  0.5545  0.8987 -0.9467
15852SOL    HW249551   8.027   4.656   4.973 -2.1363  0.2129 -2.6548
15853SOL     OW49552   2.629   8.724   1.519  0.3744  0.2459 -0.1506
15853SOL    HW149553   2.576   8.651   1.551 -2.1635  0.9693 -2.3499
15853SOL    HW249554   2.705   8.683   1.478  0.3156 -0.9867  0.9113
15854SOL     OW49555   5.074   7.043   8.655  0.1601 -0.6435 -0.8784
15854SOL    HW149556   5.016   7.040   8.730 -0.8307 -0.7655 -1.6342
15854SOL    HW249557   5.016   7.056   8.580  1.1010 -0.8071 -1.6539
15855SOL     OW49558   6.345   3.618   5.862 -0.5750 -0.2752 -0.1985
15855SOL    HW149559   6.414   3.670   5.821  0.0154  0.0592  1.1616
15855SOL    HW249560   6.285   3.682   5.899 -0.8765 -0.5688 -0.1724
15856SOL     OW49561   7.463   3.065   2.717  0.1425 -0.0198  0.5553
15856SOL    HW149562   7.441   2.977   2.685 -0.9423  0.2801  0.4274
15856SOL    HW249563   7.557   3.062   2.734  0.3239 -0.8761 -0.5042
15857SOL     OW49564   1.064   5.859   4.396 -0.2393 -0.4796 -0.1081
15857SOL    HW149565   1.001   5.788   4.383 -1.9984  0.9951  0.1367
15857SOL    HW249566   1.103   5.872   4.309 -1.0868 -0.6634 -0.5265
15858SOL     OW49567   8.785   7.415   0.008  0.3353 -0.0888  0.3835
15858SOL    HW149568   8.711   7.453  -0.039 -0.3349  0.6260  1.9484
15858SOL    HW249569   8.848   7.486   0.017  0.2593 -0.0856  0.9401
15859SOL     OW49570   8.666   4.182   8.725  0.0059  0.8245  0.5788
15859SOL    HW149571   8.749   4.203   8.768  1.9591 -0.7887 -2.0568
15859SOL    HW249572   8.642   4.263   8.679 -1.3075  2.0761  3.2498
15860SOL     OW49573   6.664   5.640   1.379 -0.0651 -0.1654  0.6302
15860SOL    HW149574   6.756   5.669   1.382  0.5702 -1.7703 -1.1759
15860SOL    HW249575   6.624   5.697   1.314  0.7767 -2.0418 -1.6942
15861SOL     OW49576   8.386   7.076   6.042 -0.2134  0.1263  0.3576
15861SOL    HW149577   8.375   7.131   5.964  1.1167 -1.6122 -1.1658
15861SOL    HW249578   8.315   7.013   6.037 -0.2894  0.1824  0.7208
15862SOL     OW49579   0.776   8.262   2.138 -0.2570 -0.2285  0.0754
15862SOL    HW149580   0.867   8.232   2.137 -0.3061 -0.3846  0.2324
15862SOL    HW249581   0.769   8.319   2.062 -0.4881 -1.5458 -0.9154
15863SOL     OW49582   0.522   1.886   3.419 -0.4774  0.7378 -0.2089
15863SOL    HW149583   0.503   1.910   3.328 -2.8535 -0.8712 -0.2290
15863SOL    HW249584   0.439   1.850   3.452  0.7943 -0.3217  2.0646
15864SOL     OW49585   7.653   3.754   8.519 -0.2029 -0.2396 -0.2360
15864SOL    HW149586   7.688   3.681   8.469  0.0091  0.1952 -0.7312
15864SOL    HW249587   7.613   3.714   8.596 -0.0499 -0.8691 -0.4824
15865SOL     OW49588   8.537   3.096   0.059  0.2786 -0.1681  0.1650
15865SOL    HW149589   8.467   3.031   0.054 -0.8583  1.1113 -1.8587
15865SOL    HW249590   8.559   3.114  -0.032  1.9364  0.8527  0.7365
15866SOL     OW49591   3.961   6.898   5.471  0.2351  0.0211  0.2098
15866SOL    HW149592   3.982   6.816   5.426  1.2011  0.9755 -1.1508
15866SOL    HW249593   3.896   6.873   5.537 -0.4432 -1.6070 -1.0040
15867SOL     OW49594   8.459   5.104   3.533  0.5976 -0.0386 -0.1082
15867SOL    HW149595   8.379   5.141   3.495  0.2495 -0.0284  0.6144
15867SOL    HW249596   8.523   5.176   3.528  1.1552 -0.6195 -2.3896
15868SOL     OW49597   3.023   2.283   5.048  0.3772  0.0565 -0.0282
15868SOL    HW149598   3.088   2.222   5.013  0.6755  0.9328 -1.0614
15868SOL    HW249599   3.016   2.260   5.140 -0.1691 -2.1097 -0.5390
15869SOL     OW49600   8.511   1.877   0.502  0.5072  0.3945  0.0070
15869SOL    HW149601   8.560   1.832   0.433  0.2374  0.9336 -0.5344
15869SOL    HW249602   8.526   1.970   0.485  0.8615  0.5273  0.9785
15870SOL     OW49603   5.879   6.388   4.759 -0.3477 -0.3344  0.1817
15870SOL    HW149604   5.922   6.351   4.681 -0.3455  2.3023 -1.1609
15870SOL    HW249605   5.813   6.323   4.782 -0.3572 -1.2156 -2.0457
15871SOL     OW49606   2.379   6.950   4.299 -0.0286 -0.0078 -0.2591
15871SOL    HW149607   2.388   7.022   4.237  0.2114 -1.5489 -2.0849
15871SOL    HW249608   2.289   6.920   4.289  0.4609 -1.2808 -1.0688
15872SOL     OW49609   5.398   7.684   4.831 -0.5026  0.7815  0.8744
15872SOL    HW149610   5.401   7.611   4.770 -0.2775  1.4454  0.0741
15872SOL    HW249611   5.341   7.653   4.902 -2.5102  0.7185 -0.6474
15873SOL     OW49612   4.134   2.741   2.548 -0.4420 -0.7981 -0.1147
15873SOL    HW149613   4.053   2.706   2.586 -1.5702 -0.3407 -1.9562
15873SOL    HW249614   4.180   2.664   2.514 -1.6041 -0.8100 -1.7453
15874SOL     OW49615   7.588   0.423   8.185  0.1477  0.2224  1.1869
15874SOL    HW149616   7.559   0.513   8.169 -1.0952 -0.4221 -0.4027
15874SOL    HW249617   7.514   0.383   8.232 -0.2609 -0.5558 -0.0781
15875SOL     OW49618   1.540   6.385   8.438  0.2257 -0.1169 -0.3506
15875SOL    HW149619   1.545   6.326   8.363 -0.1016 -0.5602 -0.0283
15875SOL    HW249620   1.447   6.406   8.446  0.3698  0.6319 -0.6075
15876SOL     OW49621   2.504   6.879   2.888 -0.4045  0.0357  0.5639
15876SOL    HW149622   2.550   6.957   2.860  0.7825 -1.3777 -1.8226
15876SOL    HW249623   2.418   6.886   2.846  0.1822 -0.4917 -0.8111
15877SOL     OW49624   5.782   3.383   1.539 -0.6945 -0.0041  0.1840
15877SOL    HW149625   5.701   3.385   1.590 -1.2907  1.1730 -0.7645
15877SOL    HW249626   5.806   3.475   1.529 -1.0778 -0.1147 -2.3869
15878SOL     OW49627   0.924   7.595   2.395 -0.1576 -0.0212 -0.1666
15878SOL    HW149628   0.893   7.662   2.456  1.0277  1.3253 -0.9889
15878SOL    HW249629   0.858   7.595   2.325  0.1328  0.6936 -0.4426
15879SOL     OW49630   0.411   7.645   4.328  0.6004  0.4154 -0.1359
15879SOL    HW149631   0.325   7.686   4.325  0.8475  0.8673 -1.3292
15879SOL    HW249632   0.436   7.649   4.421 -0.4329  0.7361  0.1395
15880SOL     OW49633   5.397   2.750   2.674 -0.5156  0.0191 -0.2645
15880SOL    HW149634   5.431   2.832   2.638 -1.1750 -0.6541 -2.6079
15880SOL    HW249635   5.335   2.777   2.742 -0.7274  1.4758 -1.0081
15881SOL     OW49636   7.044   4.209   5.468  0.0683  0.0120  0.1214
15881SOL    HW149637   6.978   4.212   5.537  1.6168 -2.3846  1.8809
15881SOL    HW249638   7.092   4.291   5.477 -1.4841  0.9806 -0.0153
15882SOL     OW49639   6.444   7.820   2.891 -0.3485 -0.3610  0.0240
15882SOL    HW149640   6.523   7.772   2.914  0.4269  1.4086  1.1987
15882SOL    HW249641   6.462   7.856   2.804 -0.1753 -0.5806 -0.0329
15883SOL     OW49642   2.118   6.088   1.378  0.0908 -0.1659 -0.3023
15883SOL    HW149643   2.127   6.131   1.293  0.4431  0.1329 -0.1187
15883SOL    HW249644   2.058   6.144   1.427  1.6578  0.9226  0.4389
15884SOL     OW49645   2.353   1.366   3.428  0.1762 -0.2158  0.5290
15884SOL    HW149646   2.333   1.296   3.367 -1.5082  0.4671  0.2478
15884SOL    HW249647   2.448   1.366   3.435  0.2790 -1.5246 -0.6337
15885SOL     OW49648   8.675   4.602   0.180  0.0336 -0.4718  0.0452
15885SOL    HW149649   8.666   4.636   0.091  0.3476 -0.2871  0.0849
15885SOL    HW249650   8.753   4.644   0.214 -0.3895 -0.1213  0.6046
15886SOL     OW49651   5.908   7.832   2.401  0.0275  0.2081  0.1022
15886SOL    HW149652   5.879   7.767   2.465 -1.0121  0.2523 -0.3091
15886SOL    HW249653   5.968   7.889   2.450 -0.9292  0.3880  1.1087
15887SOL     OW49654   2.862   3.980   1.588 -0.1931 -0.2572  0.0503
15887SOL    HW149655   2.769   4.001   1.587 -0.0412  0.6767  1.4963
15887SOL    HW249656   2.866   3.884   1.588 -1.1214 -0.3025 -0.6358
15888SOL     OW49657   1.843   5.988   7.376  0.6785 -0.5617  0.1856
15888SOL    HW149658   1.846   5.916   7.438 -0.6978 -1.5722 -0.8420
15888SOL    HW249659   1.750   5.997   7.355  0.7581  1.7924  0.5634
15889SOL     OW49660   3.618   1.045   7.586 -0.2660 -0.4332 -0.0293
15889SOL    HW149661   3.534   0.999   7.589 -0.6401  0.1681 -0.9126
15889SOL    HW249662   3.604   1.126   7.635 -0.5396  0.1649 -1.0524
15890SOL     OW49663   1.591   3.910   7.282  0.0338  0.1108  0.3422
15890SOL    HW149664   1.608   3.843   7.348 -0.3933 -2.1287 -1.6905
15890SOL    HW249665   1.498   3.931   7.293  0.3596  1.0610  1.5255
15891SOL     OW49666   3.036   1.143   2.288 -0.2030 -0.1895 -0.2881
15891SOL    HW149667   2.958   1.158   2.341 -0.6204  1.0318 -1.2008
15891SOL    HW249668   3.021   1.058   2.246 -0.6312 -0.3740  0.2281
15892SOL     OW49669   7.160   6.866   7.297  0.3624  0.4820  0.4292
15892SOL    HW149670   7.189   6.916   7.373  0.7765  1.3247 -0.2652
15892SOL    HW249671   7.068   6.844   7.315 -0.1308  2.3371  0.3382
15893SOL     OW49672   0.141   0.127   4.295  0.2805 -0.4022 -0.3645
15893SOL    HW149673   0.143   0.219   4.319 -0.0442 -0.3963 -0.3555
15893SOL    HW249674   0.200   0.120   4.221  0.7366 -0.2899 -0.0136
15894SOL     OW49675   7.679   3.435   2.623  0.4791  0.3044  0.0998
15894SOL    HW149676   7.751   3.489   2.591 -0.6809 -0.0189 -3.4674
15894SOL    HW249677   7.672   3.364   2.559 -1.3509 -1.1493  1.8012
15895SOL     OW49678   0.626   1.848   0.588  0.1907  0.1131 -0.3775
15895SOL    HW149679   0.670   1.796   0.521 -1.7071 -0.2875 -1.4008
15895SOL    HW249680   0.690   1.913   0.614  2.2121 -1.8952 -0.0076
15896SOL     OW49681   2.601   7.581   1.303 -0.2754  0.2117  0.5753
15896SOL    HW149682   2.587   7.558   1.211  1.0365  0.7651  0.2134
15896SOL    HW249683   2.542   7.655   1.318  0.5719  1.0810 -0.2601
15897SOL     OW49684   8.671   7.562   1.191 -0.1676  0.3987 -0.3364
15897SOL    HW149685   8.617   7.551   1.113  0.8057  1.7023 -1.2368
15897SOL    HW249686   8.696   7.655   1.190 -1.5932  0.9111  2.5168
15898SOL     OW49687   1.951   8.480   0.780  0.5192  0.3770  0.1680
15898SOL    HW149688   1.862   8.494   0.812  0.7553 -0.0906  1.0655
15898SOL    HW249689   1.941   8.469   0.685 -0.4708 -0.4818  0.3555
15899SOL     OW49690   6.895   3.414   3.602 -0.1588  0.8487  0.1668
15899SOL    HW149691   6.867   3.502   3.629 -0.1839  0.5027  1.3357
15899SOL    HW249692   6.827   3.356   3.634  1.2390  0.1172  2.0400
15900SOL     OW49693   1.106   5.274   1.703  0.4842  0.3691  0.3578
15900SOL    HW149694   1.113   5.290   1.609 -1.0525 -0.4920  0.0636
15900SOL    HW249695   1.167   5.202   1.719  1.3658  1.0651  0.1850
15901SOL     OW49696   1.992   7.761   6.226 -0.7731  0.3573 -0.0431
15901SOL    HW149697   1.999   7.666   6.237 -0.5637  0.2395 -1.0990
15901SOL    HW249698   1.925   7.772   6.159 -0.7295  0.9493  0.0100
15902SOL     OW49699   1.025   8.624   1.547 -0.4388 -0.2023 -0.3592
15902SOL    HW149700   1.039   8.590   1.459 -1.0945 -1.8673  0.1363
15902SOL    HW249701   1.077   8.704   1.551  1.9701 -1.6339 -1.3177
15903SOL     OW49702   8.634   2.425   8.341 -0.5335 -0.3421  0.3139
15903SOL    HW149703   8.682   2.474   8.407 -0.5646 -0.3121  0.3136
15903SOL    HW249704   8.671   2.336   8.345 -0.8036 -0.4416  0.6386
15904SOL     OW49705   7.391   3.649   3.383 -0.9622 -0.3812  0.4414
15904SOL    HW149706   7.329   3.711   3.422  0.3734  0.8313  0.7300
15904SOL    HW249707   7.462   3.704   3.351 -1.2576 -1.4659 -2.3260
15905SOL     OW49708   3.144   7.422   2.465  0.3569  0.1437 -0.8120
15905SOL    HW149709   3.090   7.460   2.396  0.3719  2.0829  0.1822
15905SOL    HW249710   3.231   7.461   2.453  0.3603  0.5189  0.2722
15906SOL     OW49711   5.382   6.356   5.906 -0.2643 -0.0003  0.4659
15906SOL    HW149712   5.324   6.432   5.896 -0.1006  0.1584  0.7255
15906SOL    HW249713   5.379   6.313   5.820 -0.7841 -0.0054  0.4850
15907SOL     OW49714   4.913   0.527   4.157  0.0963 -0.2523  0.0350
15907SOL    HW149715   4.990   0.491   4.112 -1.8292 -1.6297 -2.4422
15907SOL    HW249716   4.905   0.616   4.124  0.9819  0.1579  0.8671
15908SOL     OW49717   2.497   4.419   6.608 -0.1040 -0.1440  0.0966
15908SOL    HW149718   2.474   4.446   6.519  1.8198 -2.6959 -1.3156
15908SOL    HW249719   2.591   4.436   6.615  0.1782 -1.7982  0.8745
15909SOL     OW49720   3.709   6.936   0.066 -0.2858  0.4067 -0.0626
15909SOL    HW149721   3.663   6.915  -0.016  0.9289 -1.2112 -0.3775
15909SOL    HW249722   3.639   6.953   0.128 -1.4544 -2.4715 -0.3894
15910SOL     OW49723   5.183   7.791   8.274 -0.4321 -0.6593  1.0104
15910SOL    HW149724   5.222   7.793   8.361 -0.9948  0.5148  1.2599
15910SOL    HW249725   5.133   7.872   8.268 -0.7596 -0.9232 -0.2486
15911SOL     OW49726   5.690   5.814   4.165  0.9558 -0.3624 -0.1909
15911SOL    HW149727   5.641   5.885   4.207 -0.3127 -1.1498 -0.2893
15911SOL    HW249728   5.720   5.851   4.082 -2.6470 -0.8692 -1.9105
15912SOL     OW49729   1.161   2.121   3.891 -0.2522  0.2696  0.1937
15912SOL    HW149730   1.173   2.176   3.969  0.2819  2.5369 -1.3748
15912SOL    HW249731   1.156   2.184   3.819 -0.9012 -1.7358 -1.6020
15913SOL     OW49732   6.948   4.204   7.038  0.0051 -0.4079 -0.1010
15913SOL    HW149733   7.035   4.164   7.034  0.5821  0.1793  3.3052
15913SOL    HW249734   6.962   4.296   7.016 -0.3800 -0.8798 -2.5868
15914SOL     OW49735   7.040   7.247   6.940  0.7150 -0.2363 -0.5790
15914SOL    HW149736   6.951   7.284   6.944  1.3264  1.1673  1.2656
15914SOL    HW249737   7.028   7.155   6.964 -0.1539  0.1797  0.7161
15915SOL     OW49738   8.359   4.800   1.889 -0.5062  0.3164 -0.2878
15915SOL    HW149739   8.266   4.821   1.879 -1.0584 -2.2510 -1.5351
15915SOL    HW249740   8.404   4.859   1.829 -1.3473  1.4218  0.1408
15916SOL     OW49741   4.137   1.307   0.032 -0.0067 -0.7166 -0.0710
15916SOL    HW149742   4.046   1.336   0.033  0.3714  0.4870  0.3433
15916SOL    HW249743   4.139   1.237  -0.034 -0.6651  1.1586 -2.1860
15917SOL     OW49744   5.382   5.271   6.005 -0.1637 -0.2179 -0.5640
15917SOL    HW149745   5.462   5.307   5.966 -0.0396 -0.0032 -0.1136
15917SOL    HW249746   5.376   5.313   6.091  0.1074 -1.4217  0.0659
15918SOL     OW49747   6.376   1.658   1.143  0.3000  0.4477 -0.1501
15918SOL    HW149748   6.285   1.664   1.113 -0.0534 -1.7912  0.2903
15918SOL    HW249749   6.380   1.718   1.218 -0.8719  0.4520 -0.0655
15919SOL     OW49750   0.750   5.479   6.117 -0.5469 -0.6379 -0.1246
15919SOL    HW149751   0.807   5.463   6.192  0.5180  0.1638 -0.7334
15919SOL    HW249752   0.687   5.544   6.148 -1.1199 -1.4846  0.5348
15920SOL     OW49753   0.725   8.680   3.785  0.2028 -0.0224 -0.1470
15920SOL    HW149754   0.800   8.713   3.735  0.4512  1.5382  1.1984
15920SOL    HW249755   0.763   8.639   3.862 -0.3027  1.9644  1.2333
15921SOL     OW49756   3.730   1.282   5.418 -0.7639  0.0944  0.1806
15921SOL    HW149757   3.790   1.286   5.492  0.6689  0.0735 -0.9394
15921SOL    HW249758   3.787   1.270   5.342 -1.8596  3.8183 -1.4046
15922SOL     OW49759   8.075   6.777   8.053  0.5167 -0.9744  0.0294
15922SOL    HW149760   8.146   6.713   8.047  0.7838 -0.5400 -2.0134
15922SOL    HW249761   8.116   6.860   8.027  0.2136  0.1384  2.7232
15923SOL     OW49762   8.841   4.466   2.587 -0.2106 -0.2451  0.2710
15923SOL    HW149763   8.788   4.504   2.517 -0.2953 -0.3248  0.2905
15923SOL    HW249764   8.887   4.540   2.626  0.4979 -0.3061 -0.4223
15924SOL     OW49765   0.379   0.141   7.907  0.3512 -0.9934 -0.0146
15924SOL    HW149766   0.370   0.115   7.816 -1.3321 -0.8355  0.0702
15924SOL    HW249767   0.461   0.101   7.936  0.9214 -1.0223 -1.5850
15925SOL     OW49768   0.578   5.952   8.695 -0.5874 -0.2754 -0.4706
15925SOL    HW149769   0.545   5.877   8.744 -0.1907 -1.0656 -1.3691
15925SOL    HW249770   0.514   5.966   8.625 -0.0180 -0.6221 -1.0831
15926SOL     OW49771   6.095   1.622   1.987  0.2112 -0.3713 -0.2511
15926SOL    HW149772   6.116   1.604   2.079  0.0025  0.1958 -0.0862
15926SOL    HW249773   6.115   1.541   1.941 -2.1140 -1.5358  0.6610
15927SOL     OW49774   6.947   8.129   2.446 -0.7443 -0.3485  1.2828
15927SOL    HW149775   6.860   8.109   2.412 -1.4930  1.9710  1.6610
15927SOL    HW249776   6.953   8.225   2.441  2.8881 -0.5254 -1.4412
15928SOL     OW49777   7.393   0.820   2.188  0.2381 -0.3730  0.4207
15928SOL    HW149778   7.487   0.803   2.184  0.2270 -0.2471 -1.1332
15928SOL    HW249779   7.382   0.904   2.144 -0.6522 -0.6541  0.0906
15929SOL     OW49780   5.222   3.695   4.389  0.4524  0.0266  0.1607
15929SOL    HW149781   5.147   3.653   4.346  0.6417 -0.3604  0.1993
15929SOL    HW249782   5.185   3.771   4.433  0.2637  0.4599 -0.7353
15930SOL     OW49783   3.002   1.457   7.327  0.3329  0.1930 -0.7731
15930SOL    HW149784   3.072   1.407   7.284 -2.2106 -3.1767 -1.3915
15930SOL    HW249785   2.938   1.472   7.258 -1.2319 -0.1692  0.5523
15931SOL     OW49786   8.405   4.061   1.134  0.1827  0.1662 -0.3046
15931SOL    HW149787   8.429   3.975   1.168 -0.0889  0.3680  0.4091
15931SOL    HW249788   8.356   4.102   1.205 -0.6813  0.4726 -1.0614
15932SOL     OW49789   5.229   5.590   6.233  0.3059 -0.0549 -0.0034
15932SOL    HW149790   5.261   5.500   6.229  0.3938 -0.0647  0.7509
15932SOL    HW249791   5.141   5.582   6.270  0.2974  0.1650  0.0255
15933SOL     OW49792   2.148   3.472   1.071 -0.3485  0.0994  0.1208
15933SOL    HW149793   2.122   3.406   1.007 -1.3853  1.7267 -1.2262
15933SOL    HW249794   2.237   3.496   1.046 -0.0976 -0.5213  0.4037
15934SOL     OW49795   8.431   3.611   6.532  0.4373 -0.4457  0.7007
15934SOL    HW149796   8.343   3.622   6.496  1.1378  0.5239 -0.8289
15934SOL    HW249797   8.436   3.518   6.555 -0.5980 -0.7735 -0.2894
15935SOL     OW49798   6.724   1.326   8.836 -0.2351 -0.0338 -0.3710
15935SOL    HW149799   6.639   1.307   8.796  0.6442 -3.4628 -0.9475
15935SOL    HW249800   6.787   1.284   8.778  1.6600  0.4463  1.2534
15936SOL     OW49801   7.578   1.457   8.256  0.0882  0.4253 -0.1696
15936SOL    HW149802   7.658   1.420   8.219  0.0652  1.9147 -1.8138
15936SOL    HW249803   7.608   1.505   8.333  0.8822  1.4066 -1.0593
15937SOL     OW49804   2.552   4.902   8.349 -0.0043 -0.5594  0.1561
15937SOL    HW149805   2.642   4.930   8.366 -0.1783 -0.3169  0.6925
15937SOL    HW249806   2.560   4.837   8.279  0.4647  0.3511 -0.6527
15938SOL     OW49807   2.308   4.590   4.316 -0.1061 -0.2987  0.1166
15938SOL    HW149808   2.380   4.531   4.337 -1.2959 -1.4765  1.0196
15938SOL    HW249809   2.253   4.541   4.255 -0.8308  0.0704  0.4564
15939SOL     OW49810   0.541   3.749   2.634 -0.9772  0.4122 -0.4930
15939SOL    HW149811   0.565   3.841   2.618 -0.2084  0.2440 -0.3157
15939SOL    HW249812   0.558   3.705   2.551  0.0894  0.1447 -0.1525
15940SOL     OW49813   1.110   1.091   0.971  0.0981 -0.4711 -0.8533
15940SOL    HW149814   1.145   1.050   1.050  1.2108  2.0909  0.0902
15940SOL    HW249815   1.020   1.113   0.994  0.1024 -0.6386 -0.6704
15941SOL     OW49816   0.279   3.162   3.391 -0.9769 -0.1027  0.2217
15941SOL    HW149817   0.223   3.144   3.315 -0.4434 -0.4437 -0.1007
15941SOL    HW249818   0.326   3.242   3.367  0.1056 -0.8880 -0.3490
15942SOL     OW49819   5.018   6.541   6.322 -0.3040 -0.2803  0.1856
15942SOL    HW149820   5.038   6.453   6.354  1.2038 -0.0108  0.0861
15942SOL    HW249821   4.959   6.527   6.248  0.1343 -1.2316  0.0042
15943SOL     OW49822   6.706   5.691   3.802  0.2684  0.2871 -0.1006
15943SOL    HW149823   6.670   5.733   3.724 -0.7604 -0.0888  0.1496
15943SOL    HW249824   6.645   5.714   3.872  1.6491  1.3567  0.8088
15944SOL     OW49825   4.858   8.289   2.839 -0.4229 -0.8392 -0.2967
15944SOL    HW149826   4.893   8.217   2.891  1.0085 -0.0684 -0.1587
15944SOL    HW249827   4.934   8.325   2.792 -1.3708 -0.3914 -1.5606
15945SOL     OW49828   0.400   4.517   7.933  0.3601 -0.1827 -0.6658
15945SOL    HW149829   0.404   4.488   8.024  2.2887  2.6289  0.2817
15945SOL    HW249830   0.336   4.588   7.934  1.2537  0.6480 -1.2153
15946SOL     OW49831   1.657   7.805   3.949 -0.2218  0.0539 -0.4937
15946SOL    HW149832   1.712   7.737   3.988 -2.5229 -0.4635  2.1640
15946SOL    HW249833   1.591   7.757   3.898 -2.3389  0.0592  2.0286
15947SOL     OW49834   5.752   8.671   4.570 -0.1847 -0.3532  0.2797
15947SOL    HW149835   5.726   8.734   4.502 -0.6187  0.8785  1.5557
15947SOL    HW249836   5.830   8.628   4.534 -0.7589 -0.1887 -1.2561
15948SOL     OW49837   6.477   8.472   5.133  0.1387  0.1669  0.1589
15948SOL    HW149838   6.558   8.421   5.135  0.6511  0.9293 -0.3760
15948SOL    HW249839   6.493   8.543   5.195 -0.3252  0.0386  0.4297
15949SOL     OW49840   6.232   1.114   0.947 -0.6879  0.1010  0.1394
15949SOL    HW149841   6.325   1.091   0.954 -0.8557 -0.4485  0.6877
15949SOL    HW249842   6.199   1.060   0.875 -0.7673 -0.3423  0.5039
15950SOL     OW49843   6.571   1.325   4.720  0.3868 -0.0577 -0.2406
15950SOL    HW149844   6.611   1.412   4.725 -0.7084  0.5614 -1.6326
15950SOL    HW249845   6.569   1.304   4.627  0.9685 -1.7628  0.0967
15951SOL     OW49846   2.828   5.426   6.503  0.1370  0.5444 -0.3838
15951SOL    HW149847   2.915   5.420   6.541  0.3323  0.6522 -0.7984
15951SOL    HW249848   2.837   5.385   6.416  0.0811  1.6272 -0.9218
15952SOL     OW49849   2.892   1.953   2.893 -0.3878  0.1920  0.7074
15952SOL    HW149850   2.934   1.969   2.978 -0.7988 -1.5970  1.2754
15952SOL    HW249851   2.799   1.966   2.910 -0.4166  0.5118  0.3361
15953SOL     OW49852   4.946   0.970   6.946  0.0909 -0.1831  0.1772
15953SOL    HW149853   4.979   0.936   6.863 -0.7144 -1.6406  0.4368
15953SOL    HW249854   4.860   1.006   6.925 -0.7074 -1.7807  0.6091
15954SOL     OW49855   4.150   0.957   4.970 -0.0273  0.0893  0.4293
15954SOL    HW149856   4.147   0.911   4.886  2.1592 -2.1548  1.4574
15954SOL    HW249857   4.102   1.039   4.954 -0.7314 -0.7833 -2.6202
15955SOL     OW49858   8.039   1.543   2.239 -0.0544 -0.2883  0.9166
15955SOL    HW149859   7.980   1.617   2.220  0.2292  0.0558  1.3727
15955SOL    HW249860   8.079   1.565   2.322 -0.7780 -1.4709  1.6019
15956SOL     OW49861   0.419   7.316   2.087  0.7571 -0.0257 -0.7491
15956SOL    HW149862   0.399   7.301   1.994 -1.2271 -1.7295 -0.1328
15956SOL    HW249863   0.381   7.401   2.106  1.7915  0.6598 -1.6372
15957SOL     OW49864   5.132   2.890   0.951  0.3772  0.4458 -0.0711
15957SOL    HW149865   5.184   2.957   0.994  0.5411  0.7623 -0.7460
15957SOL    HW249866   5.165   2.889   0.860 -0.2775  0.1249 -0.3108
15958SOL     OW49867   3.841   3.321   4.419 -0.3841  0.0388  0.3554
15958SOL    HW149868   3.934   3.337   4.403 -0.6147  2.0030  0.7650
15958SOL    HW249869   3.840   3.262   4.494  0.5284 -2.5502 -1.5100
15959SOL     OW49870   7.384   1.597   4.143  0.4427 -1.0281 -0.1881
15959SOL    HW149871   7.326   1.553   4.205 -0.1275  0.1082  0.1212
15959SOL    HW249872   7.410   1.677   4.188  0.5719 -0.5172 -1.1457
15960SOL     OW49873   3.781   3.332   6.639  0.5601  0.2135 -0.1112
15960SOL    HW149874   3.727   3.350   6.716 -0.5229  1.0712 -1.0439
15960SOL    HW249875   3.859   3.384   6.652  0.9506 -0.5951  0.9772
15961SOL     OW49876   3.031   2.268   1.585  0.0361 -0.0300  0.1370
15961SOL    HW149877   2.994   2.344   1.629 -0.4296 -1.0209  1.5437
15961SOL    HW249878   2.955   2.218   1.555  0.3446  0.2873 -1.2351
15962SOL     OW49879   6.322   7.029   6.338 -0.0778  0.4987  0.3703
15962SOL    HW149880   6.232   7.042   6.309 -0.6802 -2.3190  0.6906
15962SOL    HW249881   6.348   6.945   6.299  1.9235  0.5663  1.4107
15963SOL     OW49882   6.536   8.559   7.187 -0.1555 -0.3972 -0.3440
15963SOL    HW149883   6.466   8.495   7.200 -1.3339  0.9696  0.2819
15963SOL    HW249884   6.612   8.506   7.163 -0.7840 -2.1351  1.2150
15964SOL     OW49885   0.163   6.079   0.350 -0.9764  0.0511  0.0312
15964SOL    HW149886   0.256   6.094   0.371 -0.6736  0.7802 -1.6756
15964SOL    HW249887   0.146   6.135   0.274 -2.8983  0.1104  0.4624
15965SOL     OW49888   6.129   6.339   6.919  0.5910 -0.1163  0.0696
15965SOL    HW149889   6.152   6.255   6.959  2.2581  0.5685  0.6495
15965SOL    HW249890   6.055   6.319   6.862  1.1217 -2.0348 -0.0200
15966SOL     OW49891   6.127   6.969   6.051  0.2953  0.2033  0.0749
15966SOL    HW149892   6.209   6.956   6.099  0.8508  4.0548  0.4974
15966SOL    HW249893   6.063   6.989   6.119  0.3647  2.6255 -0.4980
15967SOL     OW49894   8.454   3.937   1.630  0.1798  0.3218  0.0327
15967SOL    HW149895   8.400   4.001   1.677  0.6263  0.4278  0.4087
15967SOL    HW249896   8.406   3.855   1.638 -0.1447  0.5024 -0.0196
15968SOL     OW49897   6.453   7.828   8.690 -0.1535 -0.1775  0.2049
15968SOL    HW149898   6.434   7.739   8.720 -1.2837 -0.0331 -0.0334
15968SOL    HW249899   6.398   7.840   8.613 -0.5139  0.9460  0.6116
15969SOL     OW49900   4.954   8.358   5.300 -0.2700  0.1846  0.5786
15969SOL    HW149901   4.986   8.448   5.310  2.0203 -0.5819  0.7916
15969SOL    HW249902   4.859   8.366   5.301 -0.1601  2.7596 -0.7277
15970SOL     OW49903   6.572   0.342   4.038  0.2246  0.0189  0.0246
15970SOL    HW149904   6.621   0.371   3.961  1.7686 -0.9246  0.5963
15970SOL    HW249905   6.636   0.347   4.109 -0.6628 -0.8039  0.9003
15971SOL     OW49906   4.620   8.863   3.841 -0.4438 -0.0137  0.0233
15971SOL    HW149907   4.573   8.836   3.919  1.2560  0.3169  1.2290
15971SOL    HW249908   4.689   8.797   3.830  0.7867  1.1716  0.2252
15972SOL     OW49909   5.838   0.991   1.231 -0.3899  0.4005  0.1207
15972SOL    HW149910   5.873   1.010   1.318  0.9210  0.1280 -0.3301
15972SOL    HW249911   5.757   1.042   1.226 -0.5278  0.3510  1.5281
15973SOL     OW49912   3.827   0.703   1.032  0.0058  0.3222 -0.3019
15973SOL    HW149913   3.893   0.646   0.995  1.6316  1.4353  0.7418
15973SOL    HW249914   3.834   0.785   0.983 -1.9253 -0.1190 -1.4263
15974SOL     OW49915   0.770   4.667   3.216 -0.0577 -0.5254 -0.3662
15974SOL    HW149916   0.716   4.626   3.283 -0.9006  0.7964 -0.1756
15974SOL    HW249917   0.712   4.674   3.140  0.5431 -1.0356 -0.8782
15975SOL     OW49918   6.265   6.906   5.137  0.4470 -0.4355 -0.4570
15975SOL    HW149919   6.271   6.820   5.178  2.5518 -0.1168  0.0374
15975SOL    HW249920   6.240   6.887   5.046 -3.7437 -1.1825  0.6334
15976SOL     OW49921   0.139   0.332   2.864  0.1081 -0.1019 -0.5491
15976SOL    HW149922   0.157   0.383   2.944  0.3200 -0.6906 -0.2176
15976SOL    HW249923   0.049   0.355   2.841 -0.1787 -0.4103  0.2251
15977SOL     OW49924   8.655   3.577   7.136  0.4248 -0.1908  0.0959
15977SOL    HW149925   8.632   3.648   7.076 -0.6337  0.2386  0.9771
15977SOL    HW249926   8.658   3.618   7.222  0.9782 -0.9898  0.4673
15978SOL     OW49927   8.814   3.243   2.793  0.1081  0.6008 -0.4691
15978SOL    HW149928   8.884   3.307   2.807  1.1008 -0.7296  0.8968
15978SOL    HW249929   8.743   3.273   2.850  0.9834 -0.0915  1.0291
15979SOL     OW49930   0.848   7.416   2.157  0.5107  0.4163  0.2294
15979SOL    HW149931   0.940   7.442   2.151  0.3002  1.7408  1.9474
15979SOL    HW249932   0.842   7.365   2.237 -0.1586 -0.1072 -0.1470
15980SOL     OW49933   1.308   5.172   6.267 -0.1721 -0.1557  0.0244
15980SOL    HW149934   1.228   5.210   6.230  1.4563  1.5432 -2.0262
15980SOL    HW249935   1.349   5.127   6.194  1.7040  0.7344  0.4652
15981SOL     OW49936   7.596   0.129   4.047  0.5505 -0.1090 -0.0386
15981SOL    HW149937   7.675   0.132   3.993  0.3677 -0.7484 -0.3537
15981SOL    HW249938   7.598   0.043   4.088  1.3719  0.8378  2.0417
15982SOL     OW49939   7.395   2.447   2.220  0.2405  0.2832  0.5329
15982SOL    HW149940   7.366   2.362   2.186  2.0649  0.0472 -0.6018
15982SOL    HW249941   7.337   2.465   2.294 -0.1437 -1.9837  0.8547
15983SOL     OW49942   3.275   3.277   6.559 -0.9875  0.4124  0.0721
15983SOL    HW149943   3.223   3.212   6.608  0.7663 -1.3309 -0.2395
15983SOL    HW249944   3.346   3.300   6.619  0.8059 -1.2421 -1.2836
15984SOL     OW49945   4.666   0.198   5.597 -0.5166 -0.8212  0.4677
15984SOL    HW149946   4.628   0.271   5.646  0.0265  0.0382 -0.3703
15984SOL    HW249947   4.596   0.133   5.594 -1.6365  0.3717 -0.2938
15985SOL     OW49948   1.854   5.593   6.696 -0.2872 -0.1121  0.1696
15985SOL    HW149949   1.854   5.507   6.737 -2.8448  0.1406  0.8362
15985SOL    HW249950   1.857   5.575   6.602 -1.3534 -0.9803  0.2852
15986SOL     OW49951   8.398   3.601   6.214 -0.2798  0.6613  0.3795
15986SOL    HW149952   8.389   3.696   6.214 -4.3556  0.4622 -0.5815
15986SOL    HW249953   8.356   3.572   6.295 -0.7567 -0.3317 -0.1866
15987SOL     OW49954   8.419   4.733   0.849 -0.7227  0.0079 -0.4914
15987SOL    HW149955   8.386   4.644   0.841 -0.5519  0.0140 -1.3724
15987SOL    HW249956   8.452   4.755   0.762  1.2003  0.1663  0.2188
15988SOL     OW49957   1.076   3.963   7.760  0.7668 -0.1545 -0.5674
15988SOL    HW149958   1.029   3.965   7.676 -2.5676 -0.1361  1.1424
15988SOL    HW249959   1.069   3.873   7.790 -1.8066  0.6039  1.4830
15989SOL     OW49960   5.449   7.836   8.235  0.2266 -0.3497  0.3088
15989SOL    HW149961   5.364   7.821   8.194  0.2792  2.7502 -1.2018
15989SOL    HW249962   5.513   7.813   8.168  0.5357 -0.7641  0.7355
15990SOL     OW49963   6.136   8.881   6.565 -0.7201  0.6931  0.7659
15990SOL    HW149964   6.191   8.866   6.488 -2.0382  2.9422 -0.7429
15990SOL    HW249965   6.178   8.953   6.612 -0.6031  0.1811  1.4596
15991SOL     OW49966   8.391   8.013   3.477  0.2108 -0.2609  0.0475
15991SOL    HW149967   8.330   8.029   3.549 -0.4734 -0.6852 -0.4193
15991SOL    HW249968   8.342   8.036   3.399  1.2481  1.0606 -0.2523
15992SOL     OW49969   7.759   5.310   1.290 -0.8459  0.3369 -0.5344
15992SOL    HW149970   7.756   5.256   1.212 -1.4982 -1.5628  0.7376
15992SOL    HW249971   7.667   5.328   1.310 -0.9051 -1.6754  1.3647
15993SOL     OW49972   3.863   3.302   7.456  0.5992 -0.0859 -0.1443
15993SOL    HW149973   3.953   3.335   7.464  1.0025 -0.8565 -1.2758
15993SOL    HW249974   3.868   3.234   7.389 -1.1217  0.9657 -1.4352
15994SOL     OW49975   0.153   2.395   8.287  0.1633 -0.7446  0.2577
15994SOL    HW149976   0.095   2.383   8.361  0.2070  1.5000  0.7307
15994SOL    HW249977   0.141   2.317   8.234 -1.4581 -1.4301  1.5517
15995SOL     OW49978   7.165   1.346   4.609 -0.0720 -0.2066 -0.4156
15995SOL    HW149979   7.124   1.267   4.644  0.1170 -0.5120 -0.8715
15995SOL    HW249980   7.158   1.411   4.679 -1.0825 -0.3366 -0.3933
15996SOL     OW49981   3.493   8.712   6.408 -0.3547  0.0501 -0.7366
15996SOL    HW149982   3.577   8.666   6.417  0.3654  1.2202 -1.2368
15996SOL    HW249983   3.468   8.734   6.498  0.4166  0.6162 -0.6508
15997SOL     OW49984   2.453   1.164   1.127 -0.2345 -0.3686 -0.0343
15997SOL    HW149985   2.385   1.105   1.094  0.4364 -1.7040  0.9009
15997SOL    HW249986   2.477   1.217   1.052 -0.3396 -1.7962 -1.1160
15998SOL     OW49987   7.227   5.943   1.107  0.1081 -0.0461  0.2399
15998SOL    HW149988   7.312   5.904   1.089 -0.2301 -0.3468 -0.7277
15998SOL    HW249989   7.180   5.876   1.156  0.9860  0.7337  2.2936
15999SOL     OW49990   6.538   4.908   1.405 -0.2209 -0.1015  0.4544
15999SOL    HW149991   6.448   4.926   1.432 -0.6832  0.4333 -1.3445
15999SOL    HW249992   6.532   4.827   1.354  0.5579 -0.8228  1.4555
16000SOL     OW49993   3.562   0.585   4.135 -0.5803  0.1928 -0.6669
16000SOL    HW149994   3.637   0.634   4.168 -0.2286 -0.6042 -0.2573
16000SOL    HW249995   3.551   0.615   4.045 -0.7454  1.4568 -0.2379
16001SOL     OW49996   0.988   6.586   3.862 -0.4479 -0.8377  0.3435
16001SOL    HW149997   0.968   6.679   3.853  2.5379 -0.1829 -0.5849
16001SOL    HW249998   0.912   6.541   3.825 -1.9313  1.2029  0.7751
16002SOL     OW49999   2.286   6.390   3.155  0.2485 -0.3379 -0.4464
16002SOL    HW150000   2.332   6.318   3.199 -1.0583 -0.6113  0.5397
16002SOL    HW250001   2.193   6.369   3.165 -0.1589  1.3652 -0.3550
16003SOL     OW50002   1.105   4.628   6.051 -0.1634 -0.8857  0.0241
16003SOL    HW150003   1.070   4.548   6.011 -0.0938 -1.2548  0.6802
16003SOL    HW250004   1.144   4.598   6.133  0.7304 -0.3121 -0.1844
16004SOL     OW50005   8.492   3.055   7.459  0.4833  0.5032 -0.0874
16004SOL    HW150006   8.493   3.077   7.366  0.2203  0.4058 -0.1138
16004SOL    HW250007   8.568   3.100   7.495  0.0542  1.3176 -0.1772
16005SOL     OW50008   2.299   0.521   4.878  0.1815 -0.3179 -0.1807
16005SOL    HW150009   2.306   0.429   4.851  0.7813 -1.1329  2.4563
16005SOL    HW250010   2.390   0.551   4.883  0.0883 -0.1528  0.6667
16006SOL     OW50011   0.587   0.221   8.803 -0.1867  0.3200 -0.5180
16006SOL    HW150012   0.550   0.133   8.810 -0.2206  0.3472 -0.3256
16006SOL    HW250013   0.671   0.208   8.761 -0.1372  0.1782 -0.3808
16007SOL     OW50014   0.887   8.630   8.622  0.4011 -0.3403 -0.7717
16007SOL    HW150015   0.802   8.673   8.631  0.4990 -0.2544 -0.2419
16007SOL    HW250016   0.875   8.570   8.548 -0.5483 -1.3577  0.1541
16008SOL     OW50017   5.754   4.965   4.878  0.1496 -0.1335 -0.1278
16008SOL    HW150018   5.789   4.911   4.948  0.3745 -0.9956 -0.8839
16008SOL    HW250019   5.660   4.965   4.893  0.2246 -0.0463  0.3573
16009SOL     OW50020   3.645   8.500   7.753  0.5873  0.6601 -0.6240
16009SOL    HW150021   3.622   8.407   7.749  2.0850  0.2360  0.1393
16009SOL    HW250022   3.741   8.502   7.757  0.6236  2.2673 -1.2477
16010SOL     OW50023   4.289   3.799   7.630  0.1491 -0.1583  0.2606
16010SOL    HW150024   4.314   3.798   7.538  1.5260 -0.3078  0.6127
16010SOL    HW250025   4.272   3.891   7.649  0.6157 -0.0246  0.0423
16011SOL     OW50026   8.475   7.061   3.213 -0.1081  0.2846  0.3229
16011SOL    HW150027   8.441   6.988   3.160  1.2715  0.5547 -1.0044
16011SOL    HW250028   8.567   7.068   3.188 -0.0692  2.1242  0.8568
16012SOL     OW50029   4.177   7.981   4.421  0.1122 -0.1046  0.0676
16012SOL    HW150030   4.142   7.893   4.405 -0.6590  0.1768  0.1655
16012SOL    HW250031   4.132   8.011   4.500  1.2790 -0.0970  0.7541
16013SOL     OW50032   3.446   4.818   2.338 -0.0389 -0.3010  0.2599
16013SOL    HW150033   3.419   4.813   2.430  0.0621 -0.4365  0.2831
16013SOL    HW250034   3.428   4.730   2.304  0.0300 -0.2834  0.1788
16014SOL     OW50035   3.284   0.202   3.968  0.4066 -0.0637 -0.0752
16014SOL    HW150036   3.299   0.229   3.878  0.5210 -0.7938 -0.2802
16014SOL    HW250037   3.296   0.282   4.020 -0.9353  0.6509 -0.8133
16015SOL     OW50038   4.121   3.864   0.961  0.6775 -0.1436 -0.4322
16015SOL    HW150039   4.091   3.907   0.880 -0.2706 -0.5626 -0.3253
16015SOL    HW250040   4.064   3.900   1.029  0.6736 -0.6746 -0.1477
16016SOL     OW50041   8.680   7.076   7.292 -0.2496 -0.6303  0.2576
16016SOL    HW150042   8.724   7.161   7.282 -1.2317  0.1202  1.8677
16016SOL    HW250043   8.598   7.086   7.243  0.5274 -1.4027 -1.2585
16017SOL     OW50044   6.016   0.707   0.694  0.3799 -0.8766 -0.0659
16017SOL    HW150045   5.985   0.700   0.604  0.7639  0.5333 -0.3342
16017SOL    HW250046   6.069   0.629   0.707 -0.4604 -1.5820 -0.7361
16018SOL     OW50047   3.931   0.580   3.532 -0.2491  0.4886  0.6499
16018SOL    HW150048   3.964   0.664   3.565 -0.5502  0.6393  0.5698
16018SOL    HW250049   3.897   0.601   3.445 -0.5411  0.3294  0.7271
16019SOL     OW50050   5.840   3.924   6.762  0.4657  0.1708 -0.8727
16019SOL    HW150051   5.896   3.856   6.800 -1.2545  0.4117  2.4505
16019SOL    HW250052   5.886   4.006   6.780 -0.1955  0.2586  0.5580
16020SOL     OW50053   5.674   3.357   6.896 -0.5750 -0.2272  0.0189
16020SOL    HW150054   5.750   3.308   6.928 -0.9054 -1.1404 -0.5429
16020SOL    HW250055   5.667   3.332   6.804 -1.0682  0.4900 -0.1437
16021SOL     OW50056   7.101   8.123   2.912  0.4989 -0.0114  0.0108
16021SOL    HW150057   7.040   8.158   2.847 -0.0544  0.8048  0.9514
16021SOL    HW250058   7.077   8.031   2.921 -0.6836  0.3270  0.4679
16022SOL     OW50059   2.875   7.880   7.544  0.4318 -0.2482 -0.1398
16022SOL    HW150060   2.969   7.868   7.528  0.8341  1.7711  0.4277
16022SOL    HW250061   2.845   7.933   7.470 -0.1570 -0.4278 -0.0368
16023SOL     OW50062   3.362   5.238   4.387  0.0700 -0.1062  0.1761
16023SOL    HW150063   3.413   5.304   4.338 -1.7947  0.4721 -1.0815
16023SOL    HW250064   3.311   5.289   4.450 -1.0190 -0.3735 -0.4706
16024SOL     OW50065   0.065   1.380   5.391  0.1483 -0.7403 -0.4132
16024SOL    HW150066   0.093   1.291   5.412  0.3980 -0.1923  1.8579
16024SOL    HW250067   0.044   1.419   5.476  1.5629  1.8681 -1.1471
16025SOL     OW50068   2.122   0.874   5.569 -0.0362  0.2323  0.2194
16025SOL    HW150069   2.153   0.807   5.508 -0.2580 -0.6136  1.0053
16025SOL    HW250070   2.104   0.950   5.515 -0.3919 -0.5522 -0.7951
16026SOL     OW50071   7.432   3.818   4.932 -0.7685 -0.1705 -0.1282
16026SOL    HW150072   7.365   3.841   4.868 -0.1272  0.5137 -0.5770
16026SOL    HW250073   7.389   3.825   5.017 -1.3334 -0.0112 -0.4222
16027SOL     OW50074   7.175   0.416   6.881  0.6071 -0.5247  0.8586
16027SOL    HW150075   7.172   0.511   6.897  2.1621 -0.7815  3.0175
16027SOL    HW250076   7.207   0.409   6.791  1.6842  1.0349  1.0603
16028SOL     OW50077   8.012   7.955   2.331  0.0288 -0.1785  0.4452
16028SOL    HW150078   8.091   7.982   2.283 -0.9306 -1.1299 -1.7995
16028SOL    HW250079   8.034   7.870   2.368 -0.4448 -1.3256 -1.7311
16029SOL     OW50080   3.153   5.666   5.746 -0.3432  0.5744  0.3177
16029SOL    HW150081   3.173   5.584   5.700 -1.3693  0.4869  0.0110
16029SOL    HW250082   3.058   5.666   5.755 -0.1429  0.2901  3.0356
16030SOL     OW50083   4.521   6.826   0.256 -0.2982 -0.4586  0.9060
16030SOL    HW150084   4.449   6.853   0.198  0.7306  0.0737 -0.1690
16030SOL    HW250085   4.578   6.902   0.260  2.1928 -2.0247 -1.4269
16031SOL     OW50086   7.924   0.295   7.150  0.4737  0.0521 -0.3819
16031SOL    HW150087   7.861   0.247   7.204  0.2507  0.8913  0.1254
16031SOL    HW250088   7.883   0.380   7.135  1.9224  1.0262  0.8708
16032SOL     OW50089   0.348   6.926   0.755  0.5939 -0.0944 -0.1110
16032SOL    HW150090   0.434   6.915   0.713 -0.0134 -0.6849 -1.2538
16032SOL    HW250091   0.341   7.021   0.768  0.5284  0.2093 -2.0311
16033SOL     OW50092   4.587   6.356   8.002  0.2286  0.5663 -0.0488
16033SOL    HW150093   4.585   6.297   7.927 -0.8908 -0.0144  0.4251
16033SOL    HW250094   4.496   6.380   8.018  0.3436  0.1024  1.5660
16034SOL     OW50095   3.867   7.026   2.227 -0.0507  0.0481 -0.1562
16034SOL    HW150096   3.858   6.975   2.146 -0.0468 -0.0908 -0.0698
16034SOL    HW250097   3.813   6.979   2.291 -0.3335  0.3529 -0.1695
16035SOL     OW50098   1.777   0.623   0.186 -0.1194  0.0395  0.5811
16035SOL    HW150099   1.853   0.578   0.222  0.9305 -0.5874 -2.1988
16035SOL    HW250100   1.808   0.712   0.167 -0.4017  0.1128  0.4579
16036SOL     OW50101   8.452   7.244   7.529 -0.0291 -0.1209  0.2719
16036SOL    HW150102   8.356   7.246   7.531 -0.0304 -0.3281  0.5231
16036SOL    HW250103   8.474   7.151   7.518  0.1129  0.2422 -3.9033
16037SOL     OW50104   8.590   3.531   3.665 -0.2554  0.2139 -0.3281
16037SOL    HW150105   8.654   3.602   3.657 -0.0111  0.2783  1.6906
16037SOL    HW250106   8.620   3.480   3.741 -1.0072 -1.4493 -1.1061
16038SOL     OW50107   8.341   5.465   0.383  0.4115  0.2162 -0.7019
16038SOL    HW150108   8.371   5.396   0.443 -1.1634  0.1644  0.0651
16038SOL    HW250109   8.248   5.448   0.371  0.1893  1.6764 -1.2536
16039SOL     OW50110   5.622   5.543   0.913  0.5010  0.0386  0.1241
16039SOL    HW150111   5.555   5.598   0.871  0.7934 -0.3410 -0.8747
16039SOL    HW250112   5.593   5.535   1.004  0.2215  1.4735  0.1831
16040SOL     OW50113   6.820   4.904   6.535 -0.0226 -0.0619 -0.0242
16040SOL    HW150114   6.726   4.904   6.520  0.1244  1.3429 -1.0665
16040SOL    HW250115   6.854   4.840   6.472 -0.1814  0.1487 -0.3252
16041SOL     OW50116   7.776   5.576   7.643  0.2310  0.0334 -0.4570
16041SOL    HW150117   7.814   5.599   7.728 -2.5622  0.6676  0.7410
16041SOL    HW250118   7.761   5.660   7.600  1.7314 -0.2940 -1.6540
16042SOL     OW50119   4.758   1.489   0.195  0.1114  0.0174 -0.3313
16042SOL    HW150120   4.819   1.562   0.204  0.2796 -0.2398  0.7884
16042SOL    HW250121   4.725   1.474   0.284 -2.1191  0.5870 -0.9866
16043SOL     OW50122   6.675   6.835   6.427  0.0213 -0.5499  0.8694
16043SOL    HW150123   6.728   6.904   6.467 -0.2386 -0.7147  1.5088
16043SOL    HW250124   6.713   6.753   6.458  0.1498 -0.6957  0.3419
16044SOL     OW50125   6.897   2.647   4.062 -0.6293  0.8980  0.0755
16044SOL    HW150126   6.961   2.705   4.103  0.9346 -1.2552  0.8913
16044SOL    HW250127   6.895   2.674   3.970 -1.2223  3.2496  0.7268
16045SOL     OW50128   4.470   4.613   0.743 -0.1178  0.0199  0.3712
16045SOL    HW150129   4.497   4.696   0.783 -1.9817  1.1129 -0.5113
16045SOL    HW250130   4.435   4.638   0.657  0.7598 -1.8911 -0.5914
16046SOL     OW50131   4.131   5.377   4.100 -0.1945  0.1176  0.2334
16046SOL    HW150132   4.103   5.323   4.026 -1.2267  0.5390  0.3039
16046SOL    HW250133   4.227   5.371   4.099 -0.2671 -1.3291 -0.0349
16047SOL     OW50134   7.131   8.296   8.415  0.0325  0.1633  0.0755
16047SOL    HW150135   7.073   8.220   8.410 -2.1268  1.6628  0.9608
16047SOL    HW250136   7.161   8.298   8.506  0.1976  0.2939  0.0195
16048SOL     OW50137   0.796   0.377   5.130  0.0095 -0.0333 -0.0923
16048SOL    HW150138   0.890   0.368   5.146  0.4874  0.6663 -2.1688
16048SOL    HW250139   0.770   0.452   5.182  0.6354 -0.1366  0.3783
16049SOL     OW50140   0.106   4.325   7.644  0.1874  0.0825 -0.2621
16049SOL    HW150141   0.120   4.230   7.646 -0.0383  0.0611  0.7141
16049SOL    HW250142   0.043   4.339   7.573  0.4055 -0.4661 -0.5686
16050SOL     OW50143   0.573   0.104   6.048  0.3072  0.3188 -0.0586
16050SOL    HW150144   0.513   0.136   6.115  1.1710 -0.0090  0.9092
16050SOL    HW250145   0.535   0.021   6.019 -0.9855  1.2935 -1.2706
16051SOL     OW50146   0.704   1.608   1.993 -0.1630 -0.1668 -0.5054
16051SOL    HW150147   0.630   1.547   1.995 -0.5357  0.1495  2.9662
16051SOL    HW250148   0.668   1.690   2.028  1.3268  0.6604 -0.8461
16052SOL     OW50149   0.612   4.112   7.454  0.2698 -0.7117  0.2331
16052SOL    HW150150   0.653   4.028   7.430  0.3536 -0.8635  0.9045
16052SOL    HW250151   0.627   4.120   7.548 -2.2269 -1.3100  0.7433
16053SOL     OW50152   3.387   1.994   0.357  0.3002  0.1853  0.4704
16053SOL    HW150153   3.307   2.012   0.406 -0.0833 -0.1876 -0.0050
16053SOL    HW250154   3.433   1.928   0.409 -0.4013 -0.6685  0.0474
16054SOL     OW50155   8.269   1.204   0.398 -0.1399  0.0711 -0.3036
16054SOL    HW150156   8.340   1.144   0.421 -0.8457 -0.5622  0.2522
16054SOL    HW250157   8.190   1.151   0.401 -0.6560  0.7864 -0.8531
16055SOL     OW50158   3.445   2.553   3.516  0.2545  0.0051  0.0077
16055SOL    HW150159   3.401   2.550   3.601 -1.5419  0.5947 -0.8447
16055SOL    HW250160   3.536   2.574   3.536 -0.0634 -0.1987  1.7954
16056SOL     OW50161   2.854   6.329   7.206 -0.1575 -0.1640 -0.4843
16056SOL    HW150162   2.809   6.282   7.276 -2.1783  1.0123 -0.9214
16056SOL    HW250163   2.791   6.332   7.134 -0.3896  3.5980 -0.3078
16057SOL     OW50164   1.239   5.522   3.955 -0.1113 -0.0840  0.1387
16057SOL    HW150165   1.202   5.444   3.996 -2.5167  1.1361  0.4798
16057SOL    HW250166   1.187   5.534   3.876  1.3577  0.2644 -0.8231
16058SOL     OW50167   4.089   1.542   4.090 -0.5188  0.1781  0.5575
16058SOL    HW150168   4.069   1.548   3.996  0.3956 -1.4658  0.2314
16058SOL    HW250169   4.057   1.455   4.116  1.8177 -0.5778  1.0927
16059SOL     OW50170   0.598   2.955   6.165 -0.7034 -0.0888 -0.4005
16059SOL    HW150171   0.676   2.984   6.118 -0.3646 -1.2382 -0.5757
16059SOL    HW250172   0.604   2.860   6.165 -0.1140 -0.1929  2.9299
16060SOL     OW50173   4.854   4.088   0.165 -0.2544  0.3962  0.1642
16060SOL    HW150174   4.853   4.093   0.261  0.2779  0.0340  0.1924
16060SOL    HW250175   4.762   4.076   0.141 -0.1780 -1.6730  0.7561
16061SOL     OW50176   2.293   4.561   6.744 -0.0272 -0.2791 -0.2309
16061SOL    HW150177   2.366   4.529   6.692 -0.1460  0.3818 -0.8264
16061SOL    HW250178   2.265   4.641   6.699 -1.0429 -0.4655  0.0463
16062SOL     OW50179   1.884   3.298   0.536  0.1243 -0.5132  0.2958
16062SOL    HW150180   1.971   3.299   0.496 -0.3510  1.3777 -0.7947
16062SOL    HW250181   1.845   3.216   0.506  1.4798 -1.3470  0.7305
16063SOL     OW50182   5.311   1.400   5.810  0.3043 -0.0512  0.6939
16063SOL    HW150183   5.326   1.481   5.761 -0.0747  0.4991  1.4568
16063SOL    HW250184   5.312   1.427   5.902  0.9268 -1.0482  0.9915
16064SOL     OW50185   4.579   7.113   6.268 -0.8361 -0.4199 -0.0802
16064SOL    HW150186   4.578   7.206   6.289  0.4738 -0.4465  0.2354
16064SOL    HW250187   4.565   7.110   6.173 -1.6870  0.0411  0.0284
16065SOL     OW50188   2.507   3.076   7.628 -0.1852 -0.4058  0.7106
16065SOL    HW150189   2.442   3.078   7.558  0.5374 -1.3347 -0.0071
16065SOL    HW250190   2.506   3.165   7.664 -1.3353 -0.2094  0.2476
16066SOL     OW50191   3.276   7.330   4.314  0.3191 -0.3647  0.2771
16066SOL    HW150192   3.236   7.276   4.381  0.9377 -0.1715  0.8099
16066SOL    HW250193   3.366   7.342   4.343  0.5994 -0.2774 -0.5837
16067SOL     OW50194   8.839   1.450   0.799 -0.0914 -0.2126  0.3662
16067SOL    HW150195   8.759   1.424   0.846 -0.4318 -0.3626 -0.2695
16067SOL    HW250196   8.827   1.412   0.711 -0.0213  1.0538 -0.2060
16068SOL     OW50197   5.054   7.666   2.110 -0.2058 -0.1619  0.3641
16068SOL    HW150198   5.089   7.597   2.054 -1.3200  0.2956 -0.9546
16068SOL    HW250199   4.999   7.718   2.052 -1.1315  0.5484  1.8210
16069SOL     OW50200   1.662   2.486   1.347  0.7144 -0.4522 -0.1888
16069SOL    HW150201   1.703   2.506   1.431 -2.2697  3.6206  0.6113
16069SOL    HW250202   1.723   2.521   1.282  0.9233  0.7049  0.5971
16070SOL     OW50203   8.784   7.015   3.136  0.0326  0.5375  0.8780
16070SOL    HW150204   8.759   7.060   3.055 -1.2075 -1.0007  0.3468
16070SOL    HW250205   8.877   7.035   3.147 -0.0392  1.6713 -0.3212
16071SOL     OW50206   5.336   8.468   2.040 -0.4595  0.0460 -0.0416
16071SOL    HW150207   5.304   8.385   2.004  1.0556  0.2906 -2.0912
16071SOL    HW250208   5.421   8.446   2.079 -0.9793  0.2725  1.2729
16072SOL     OW50209   5.807   4.041   5.735  0.0764  0.4615 -0.0865
16072SOL    HW150210   5.754   3.984   5.790 -0.3647  0.8583 -0.0992
16072SOL    HW250211   5.762   4.044   5.651  0.2763  0.5603 -0.1919
16073SOL     OW50212   8.178   1.090   1.092  0.3962 -0.2065 -0.3458
16073SOL    HW150213   8.176   1.053   1.180 -0.3876  0.3082 -0.1339
16073SOL    HW250214   8.222   1.024   1.038  1.5621 -0.2106  0.5687
16074SOL     OW50215   1.251   2.718   3.663  0.1057 -0.2312 -0.7510
16074SOL    HW150216   1.319   2.660   3.631  0.9911  0.8412 -0.8884
16074SOL    HW250217   1.229   2.685   3.750  2.3611  0.6171  0.2299
16075SOL     OW50218   7.854   3.173   3.210  0.3239 -0.2313 -0.0476
16075SOL    HW150219   7.937   3.176   3.258 -0.1168  1.2685  0.6974
16075SOL    HW250220   7.854   3.087   3.168  1.6086 -0.8438  1.0917
16076SOL     OW50221   6.110   3.995   2.699  0.1160  0.6941  0.1601
16076SOL    HW150222   6.064   3.925   2.746  1.0011 -0.5948 -0.8149
16076SOL    HW250223   6.160   4.040   2.766 -0.3200  0.2798  0.7784
16077SOL     OW50224   3.826   6.120   7.284 -0.1147  0.1762  0.0439
16077SOL    HW150225   3.882   6.181   7.236  1.9094 -0.0230  1.9822
16077SOL    HW250226   3.860   6.033   7.261  0.6652  0.0684  1.4931
16078SOL     OW50227   1.833   2.077   0.275  0.1641 -0.1052 -0.5090
16078SOL    HW150228   1.889   2.152   0.290 -1.0559  0.4579  1.7601
16078SOL    HW250229   1.751   2.114   0.243 -0.0740 -0.5648 -0.4449
16079SOL     OW50230   6.818   4.013   0.073  0.6111  0.1711  0.2093
16079SOL    HW150231   6.775   4.022   0.158 -0.3670 -2.1853  0.0404
16079SOL    HW250232   6.832   3.919   0.062  2.8446  0.5742 -1.2454
16080SOL     OW50233   8.522   4.224   2.472  0.5799 -0.7094  0.2017
16080SOL    HW150234   8.472   4.163   2.526 -0.5804 -0.5750 -0.6846
16080SOL    HW250235   8.473   4.306   2.476  1.6017 -0.0957  0.5880
16081SOL     OW50236   8.649   0.622   6.046  0.3024  0.4127  0.2470
16081SOL    HW150237   8.668   0.629   6.139 -0.6852 -0.3402  0.5201
16081SOL    HW250238   8.629   0.529   6.032 -0.5604  0.6945 -0.5148
16082SOL     OW50239   6.826   1.109   0.485 -0.0675  0.2502 -0.2796
16082SOL    HW150240   6.899   1.164   0.512 -0.2759 -0.1449  1.1647
16082SOL    HW250241   6.748   1.152   0.520 -0.3521 -0.3013 -0.2142
16083SOL     OW50242   1.808   1.050   7.077 -0.0357 -0.0311  0.8139
16083SOL    HW150243   1.830   1.116   7.011 -0.8455 -1.6733 -1.2115
16083SOL    HW250244   1.721   1.076   7.108  0.5700  1.0439  1.6614
16084SOL     OW50245   6.741   6.925   0.121 -0.3428 -0.5743  0.1064
16084SOL    HW150246   6.710   6.998   0.176 -0.1652 -0.2823 -0.1821
16084SOL    HW250247   6.808   6.883   0.174  1.2229  0.8697 -0.6320
16085SOL     OW50248   7.294   8.578   1.862 -0.0289 -0.7946 -0.8771
16085SOL    HW150249   7.385   8.598   1.884  0.1827 -0.2888 -2.1160
16085SOL    HW250250   7.271   8.642   1.794 -0.8527 -1.8283 -1.6026
16086SOL     OW50251   3.410   3.974   7.119 -0.2320 -0.2626  0.5420
16086SOL    HW150252   3.382   4.044   7.061  0.4384 -0.1202  0.3748
16086SOL    HW250253   3.432   3.902   7.060  1.8378  0.3544  0.4564
16087SOL     OW50254   7.023   8.173   0.044 -0.5522 -0.4561  0.0074
16087SOL    HW150255   7.037   8.263   0.075  2.0393 -0.6671 -0.3999
16087SOL    HW250256   6.930   8.172   0.020 -0.6920  2.0954  0.0766
16088SOL     OW50257   5.934   1.353   1.459 -1.0593  0.2094  0.3893
16088SOL    HW150258   5.936   1.257   1.457  1.9626  0.1688  0.5016
16088SOL    HW250259   5.993   1.377   1.530 -0.6881  2.1666 -0.4999
16089SOL     OW50260   7.167   5.872   3.955  0.4674 -0.5065 -0.2146
16089SOL    HW150261   7.082   5.840   3.927  0.5623 -0.4040 -0.6338
16089SOL    HW250262   7.153   5.907   4.042 -0.2280  0.7959 -0.8334
16090SOL     OW50263   1.295   5.763   1.956  0.0685 -0.1543  0.2664
16090SOL    HW150264   1.321   5.827   2.023 -2.3515  0.2061  0.9475
16090SOL    HW250265   1.324   5.803   1.873  1.7675  0.0915  0.9309
16091SOL     OW50266   2.196   8.430   2.242  0.3419  0.1456  0.6628
16091SOL    HW150267   2.236   8.513   2.266  0.1615  0.1318  1.0059
16091SOL    HW250268   2.103   8.448   2.235  0.2346 -0.1516  1.2875
16092SOL     OW50269   0.002   8.678   0.174 -0.3136  0.2855 -0.3532
16092SOL    HW150270  -0.037   8.638   0.096 -1.2478  0.3284  0.0691
16092SOL    HW250271  -0.071   8.683   0.236  0.4763  0.0183  0.6155
16093SOL     OW50272   3.669   0.934   6.842  0.3209  0.1531  0.5483
16093SOL    HW150273   3.750   0.897   6.807  0.4564  0.8740  0.0991
16093SOL    HW250274   3.601   0.875   6.810  0.4980  0.4898 -0.4903
16094SOL     OW50275   0.383   5.425   8.508 -0.4339 -0.4985 -0.0703
16094SOL    HW150276   0.301   5.418   8.460 -0.6381 -1.7354  0.4275
16094SOL    HW250277   0.441   5.362   8.465 -0.0786 -0.3994  0.2606
16095SOL     OW50278   4.788   7.540   8.025  0.2902  0.0191  0.1366
16095SOL    HW150279   4.745   7.615   8.066  0.5161 -0.2848  0.9509
16095SOL    HW250280   4.725   7.510   7.960 -0.1095  0.4740  0.3003
16096SOL     OW50281   6.197   4.879   0.909 -0.4595 -0.2362  0.1471
16096SOL    HW150282   6.235   4.830   0.983  0.4553 -0.9983 -0.7928
16096SOL    HW250283   6.105   4.891   0.933 -0.4684 -1.5307  0.8696
16097SOL     OW50284   2.311   0.291   2.612  0.1337  0.1664 -0.1731
16097SOL    HW150285   2.325   0.236   2.689  1.5091  0.2847 -0.3088
16097SOL    HW250286   2.259   0.365   2.645  1.3793  0.6247  0.8411
16098SOL     OW50287   4.197   7.950   5.108  0.4731  0.4201 -0.5708
16098SOL    HW150288   4.271   7.962   5.167  2.0745 -1.5555 -2.0371
16098SOL    HW250289   4.147   7.878   5.147  0.9330 -0.1535 -1.0121
16099SOL     OW50290   1.434   6.437   2.086 -0.0658 -0.3197 -0.0156
16099SOL    HW150291   1.386   6.394   2.015 -0.9316  0.9713 -0.2423
16099SOL    HW250292   1.435   6.372   2.157  1.4563 -1.9218 -1.4192
16100SOL     OW50293   0.274   8.875   0.114  0.0605 -0.9656 -0.7125
16100SOL    HW150294   0.204   8.846   0.055 -2.8418  0.1846  1.8735
16100SOL    HW250295   0.283   8.804   0.176 -1.2244  0.1664  0.8500
16101SOL     OW50296   5.747   4.898   4.201  0.5300  0.3558 -0.1930
16101SOL    HW150297   5.820   4.959   4.191  1.6917 -0.6706  1.4792
16101SOL    HW250298   5.771   4.845   4.277 -1.0316 -1.3378 -0.8184
16102SOL     OW50299   0.973   6.384   3.475 -0.3027 -0.7726  0.0953
16102SOL    HW150300   1.013   6.331   3.544  1.9377 -2.1934 -2.1278
16102SOL    HW250301   0.940   6.320   3.412  0.5036  0.4034 -1.6130
16103SOL     OW50302   1.565   5.029   1.431 -0.1633  0.2203  0.3469
16103SOL    HW150303   1.561   4.933   1.423 -1.5472  0.3338 -0.6820
16103SOL    HW250304   1.653   5.052   1.402  0.5573 -0.8050  1.5928
16104SOL     OW50305   3.781   3.972   1.444  0.5816  0.2295  0.2444
16104SOL    HW150306   3.775   4.061   1.408  0.1934 -0.4232 -1.4318
16104SOL    HW250307   3.859   3.935   1.403  1.3789  0.1316  1.7883
16105SOL     OW50308   0.860   4.254   0.649  0.1153 -0.4585  0.2039
16105SOL    HW150309   0.805   4.178   0.663  1.3185 -1.3866  0.0948
16105SOL    HW250310   0.821   4.298   0.573 -0.4582 -1.1075  0.1122
16106SOL     OW50311   6.506   0.513   7.934 -0.0633  0.0275 -0.8811
16106SOL    HW150312   6.460   0.507   7.850 -0.1897  1.4802 -0.9317
16106SOL    HW250313   6.580   0.572   7.917  0.6093 -0.6116 -0.2567
16107SOL     OW50314   0.937   2.229   6.375 -0.2402 -0.6766  0.2629
16107SOL    HW150315   0.910   2.144   6.411  2.0736 -1.6701 -0.1603
16107SOL    HW250316   0.957   2.282   6.453  0.0856 -1.1655  0.5205
16108SOL     OW50317   0.698   4.791   7.704  0.5131 -0.0833 -0.0129
16108SOL    HW150318   0.789   4.774   7.728  0.5217  2.6630  2.4704
16108SOL    HW250319   0.685   4.884   7.723 -3.6974 -1.0088  3.1422
16109SOL     OW50320   2.107   0.605   4.488  0.1034  0.3954  0.3156
16109SOL    HW150321   2.113   0.679   4.428 -0.8490 -0.1925 -0.5429
16109SOL    HW250322   2.192   0.563   4.483  0.1996  0.6434 -0.2414
16110SOL     OW50323   1.237   6.358   2.943 -0.2785 -0.1131  0.1364
16110SOL    HW150324   1.206   6.426   2.883 -0.8525 -1.7249 -1.4859
16110SOL    HW250325   1.220   6.394   3.031 -0.6060  1.7808 -0.6595
16111SOL     OW50326   0.898   2.716   3.705  0.0067 -0.3322  0.6101
16111SOL    HW150327   0.915   2.642   3.646 -0.0540  0.7340 -0.7816
16111SOL    HW250328   0.804   2.710   3.724 -0.6243  0.8830 -1.6942
16112SOL     OW50329   1.642   6.678   6.073 -0.2970  0.7752 -0.1428
16112SOL    HW150330   1.642   6.636   5.987  0.4784 -0.9873  0.6794
16112SOL    HW250331   1.735   6.690   6.094 -0.2606 -2.0619  1.8959
16113SOL     OW50332   2.535   6.246   7.992 -0.1441  0.2300  0.0631
16113SOL    HW150333   2.474   6.271   8.061  0.8456  2.6584  0.1442
16113SOL    HW250334   2.494   6.171   7.950 -2.1877  0.5217  1.3965
16114SOL     OW50335   5.713   0.903   7.553 -0.1444 -0.0991  0.5285
16114SOL    HW150336   5.792   0.953   7.576 -0.0914  0.3310 -0.5156
16114SOL    HW250337   5.730   0.814   7.585  0.3362  0.2360  1.2065
16115SOL     OW50338   7.647   3.708   5.799 -0.2552 -0.5874 -0.0215
16115SOL    HW150339   7.646   3.621   5.839  0.0941 -1.1801 -1.2562
16115SOL    HW250340   7.730   3.746   5.827 -0.7776 -0.3092  1.1969
16116SOL     OW50341   5.253   7.602   1.193  0.0860 -0.2500  1.0206
16116SOL    HW150342   5.250   7.615   1.288  0.1183  0.5621  0.9160
16116SOL    HW250343   5.200   7.673   1.157 -0.2262 -0.7593  0.4394
16117SOL     OW50344   0.494   0.974   7.314 -0.0987 -0.0203  0.0920
16117SOL    HW150345   0.454   1.061   7.306 -0.1937  0.0398  1.1667
16117SOL    HW250346   0.468   0.944   7.401  1.6008 -0.2787  0.5333
16118SOL     OW50347   4.803   8.086   6.809  0.1952  0.0887 -0.6527
16118SOL    HW150348   4.809   7.993   6.789 -0.1964 -0.3399  1.0550
16118SOL    HW250349   4.864   8.099   6.882  1.9524  1.6626 -2.2979
16119SOL     OW50350   5.968   1.105   7.984 -0.5743 -0.0430 -0.5799
16119SOL    HW150351   6.028   1.114   7.909  0.6529 -0.8882  0.2543
16119SOL    HW250352   5.989   1.020   8.021 -1.3441  0.2498  0.5817
16120SOL     OW50353   0.092   3.601   3.490  0.4408 -0.0343 -0.4132
16120SOL    HW150354   0.057   3.513   3.473  1.0595 -0.1649 -1.0981
16120SOL    HW250355   0.092   3.643   3.404  0.8665  0.3602 -0.2249
16121SOL     OW50356   7.286   5.165   5.954  0.7639 -0.5333 -0.0340
16121SOL    HW150357   7.272   5.186   5.861 -0.2190 -1.3006 -0.0756
16121SOL    HW250358   7.276   5.070   5.959 -2.1145 -0.2618  1.3004
16122SOL     OW50359   4.583   5.857   4.751  0.5716 -0.0651  0.2138
16122SOL    HW150360   4.496   5.822   4.773  0.2904  0.3110 -0.2719
16122SOL    HW250361   4.640   5.780   4.749  0.3310 -0.2708  0.9042
16123SOL     OW50362   8.194   3.199   2.223 -0.6729  0.0151 -0.2223
16123SOL    HW150363   8.112   3.227   2.263 -0.3863 -0.2528  0.5783
16123SOL    HW250364   8.189   3.103   2.222 -1.0394  0.0324 -1.6306
16124SOL     OW50365   3.882   0.772   6.784 -0.5409 -0.2019 -0.6136
16124SOL    HW150366   3.976   0.780   6.802 -0.5648  2.0076 -1.2117
16124SOL    HW250367   3.865   0.678   6.787  0.8003 -0.5509  3.7985
16125SOL     OW50368   2.601   4.679   8.192  0.3702  0.6820 -0.0255
16125SOL    HW150369   2.522   4.627   8.176  0.2543  1.2201 -1.3869
16125SOL    HW250370   2.654   4.666   8.113  1.7998  0.0987  0.9833
16126SOL     OW50371   0.079   2.396   4.162 -0.4957  0.2341  0.0299
16126SOL    HW150372   0.013   2.465   4.154  0.2967  0.9127 -0.9075
16126SOL    HW250373   0.122   2.415   4.246 -1.2936 -0.0581  0.5211
16127SOL     OW50374   0.731   5.717   4.503 -0.2879  0.4989  0.1760
16127SOL    HW150375   0.786   5.704   4.426 -0.1377  0.0709  0.3566
16127SOL    HW250376   0.755   5.647   4.563 -2.1353 -0.6762 -0.3734
16128SOL     OW50377   5.200   2.845   3.216  0.3799  0.2321  1.1775
16128SOL    HW150378   5.178   2.919   3.160  0.0417 -0.4960  0.3097
16128SOL    HW250379   5.282   2.871   3.259  1.2332  0.4134 -0.4764
16129SOL     OW50380   6.022   3.918   1.558 -0.5361  0.1578 -0.1816
16129SOL    HW150381   6.098   3.932   1.615 -0.2031 -1.2535 -0.2383
16129SOL    HW250382   5.953   3.972   1.596  0.1743  0.5769  0.5462
16130SOL     OW50383   3.950   6.404   0.474 -0.2243  0.0709 -0.0131
16130SOL    HW150384   3.980   6.492   0.450  0.2251 -0.5317 -1.8642
16130SOL    HW250385   3.890   6.418   0.547 -1.0306  2.0271 -0.9750
16131SOL     OW50386   6.491   3.934   8.048  0.4764  0.1258  0.0633
16131SOL    HW150387   6.586   3.933   8.036  0.5497 -0.3643  0.6416
16131SOL    HW250388   6.477   3.997   8.119  0.1672  1.8909 -1.4561
16132SOL     OW50389   1.693   5.176   6.106 -0.0092  0.1356  0.6113
16132SOL    HW150390   1.784   5.147   6.103 -0.0026  0.1685  0.4822
16132SOL    HW250391   1.655   5.127   6.179  0.2117  0.4092  0.9115
16133SOL     OW50392   0.898   5.891   2.954 -0.0188 -0.6975 -0.3841
16133SOL    HW150393   0.942   5.958   3.007 -0.8665 -0.1496 -0.3365
16133SOL    HW250394   0.883   5.934   2.870 -0.3122 -0.9277 -0.4489
16134SOL     OW50395   5.336   6.508   3.707 -0.4734 -0.4443 -0.0961
16134SOL    HW150396   5.383   6.496   3.626  1.5865  0.3984  0.9060
16134SOL    HW250397   5.359   6.432   3.761  0.7524  0.5254  0.8188
16135SOL     OW50398   8.643   2.762   1.083 -0.4973 -0.0819 -0.0649
16135SOL    HW150399   8.600   2.683   1.051  1.2701 -0.5234 -1.4516
16135SOL    HW250400   8.723   2.770   1.031  1.8395 -0.0126  3.2315
16136SOL     OW50401   1.506   3.421   0.884  0.6525 -0.4664  0.3150
16136SOL    HW150402   1.426   3.372   0.905 -0.2616  0.6512 -0.4211
16136SOL    HW250403   1.521   3.476   0.961  0.5696 -0.4965  0.3533
16137SOL     OW50404   1.139   7.938   8.546  0.0453 -0.4817  0.1430
16137SOL    HW150405   1.061   7.927   8.491 -0.2300  6.0063 -1.6309
16137SOL    HW250406   1.213   7.926   8.487 -0.0558  1.1860 -0.3755
16138SOL     OW50407   2.249   3.532   8.105  0.0680  0.4516  0.2520
16138SOL    HW150408   2.243   3.620   8.144 -0.3113  0.6663 -0.2780
16138SOL    HW250409   2.211   3.474   8.171 -0.1742  0.7547  0.3793
16139SOL     OW50410   2.532   4.222   7.907 -0.7690 -0.0363 -0.4828
16139SOL    HW150411   2.452   4.211   7.856  0.0321 -0.2996 -1.7489
16139SOL    HW250412   2.599   4.174   7.857  0.3778  0.9628  0.0318
16140SOL     OW50413   4.063   6.446   3.840  0.2300  0.2886  0.0506
16140SOL    HW150414   4.149   6.430   3.878  0.9279 -0.9445 -1.9001
16140SOL    HW250415   4.006   6.380   3.879  0.6152 -0.0910 -0.0260
16141SOL     OW50416   3.692   1.738   5.619 -0.1852 -0.3688 -0.1972
16141SOL    HW150417   3.772   1.736   5.567 -0.1478 -2.2148 -0.1236
16141SOL    HW250418   3.624   1.708   5.559 -0.5746 -0.1743  0.1451
16142SOL     OW50419   4.163   8.808   5.578 -0.2355 -1.0735  0.3906
16142SOL    HW150420   4.082   8.766   5.606 -0.0094 -2.2674 -0.6753
16142SOL    HW250421   4.143   8.847   5.493 -0.5987  1.5580  1.5921
16143SOL     OW50422   6.647   4.333   5.756 -0.9200 -0.0850 -0.1868
16143SOL    HW150423   6.655   4.388   5.834  0.1941 -0.5064  0.0155
16143SOL    HW250424   6.591   4.383   5.697  0.3360  1.4176 -0.1518
16144SOL     OW50425   7.778   7.184   5.263  0.2289  0.0625 -0.6344
16144SOL    HW150426   7.808   7.274   5.250  0.0358  0.1361 -0.5617
16144SOL    HW250427   7.854   7.131   5.240  1.0746  0.3071  1.3923
16145SOL     OW50428   5.958   1.968   8.709 -0.1054 -0.1750 -0.3820
16145SOL    HW150429   5.993   1.956   8.621 -3.3000 -2.9896 -1.4838
16145SOL    HW250430   5.872   2.008   8.696 -0.0894  0.6490  1.6182
16146SOL     OW50431   5.221   7.501   4.968  0.2717  0.0691  0.2001
16146SOL    HW150432   5.150   7.541   5.017 -1.0540 -1.2560 -0.5307
16146SOL    HW250433   5.192   7.504   4.877  1.7673  0.6900 -0.2753
16147SOL     OW50434   8.136   7.096   2.690 -0.0649 -0.4413  0.0692
16147SOL    HW150435   8.102   7.052   2.613 -1.6719  0.9082 -0.0326
16147SOL    HW250436   8.059   7.134   2.732  0.3731 -3.0187  3.6521
16148SOL     OW50437   0.333   8.410   5.475 -0.0192 -0.6028  0.4890
16148SOL    HW150438   0.349   8.315   5.477  0.8694 -0.5173 -1.0305
16148SOL    HW250439   0.370   8.442   5.558  1.0130 -1.4036  0.3575
16149SOL     OW50440   3.511   2.736   6.658  0.1096 -0.5032  0.5320
16149SOL    HW150441   3.492   2.731   6.564  1.5931 -0.9314  0.2268
16149SOL    HW250442   3.486   2.825   6.683 -0.6824 -0.5179 -0.1750
16150SOL     OW50443   5.021   6.985   0.523  0.1908 -0.2351 -0.3481
16150SOL    HW150444   5.103   6.938   0.537  0.6107  0.5158 -0.1855
16150SOL    HW250445   5.032   7.026   0.437  0.3951  0.6505  0.0841
16151SOL     OW50446   5.480   4.986   4.888  0.1057 -0.1922  0.2568
16151SOL    HW150447   5.426   4.951   4.958  0.9454  0.6154  1.3546
16151SOL    HW250448   5.425   5.053   4.847  0.1481  0.4489  1.1998
16152SOL     OW50449   6.251   2.169   5.364 -0.0615 -0.2097 -0.0547
16152SOL    HW150450   6.164   2.193   5.331 -1.0290 -2.6451  0.4802
16152SOL    HW250451   6.290   2.116   5.295  0.1567 -0.7964  0.5087
16153SOL     OW50452   0.224   8.049   6.740 -0.4281  0.0359 -0.5055
16153SOL    HW150453   0.157   8.104   6.699 -1.4634 -0.1282  0.8739
16153SOL    HW250454   0.174   7.975   6.777  0.3993  0.2930  1.2075
16154SOL     OW50455   4.747   3.110   4.785 -0.5112 -0.3275  0.3549
16154SOL    HW150456   4.812   3.067   4.842 -1.3027 -1.8297  0.1513
16154SOL    HW250457   4.663   3.088   4.824 -0.9538  1.2900  0.3847
16155SOL     OW50458   0.049   0.278   3.953 -0.1491 -0.0784  0.5405
16155SOL    HW150459   0.127   0.311   3.908 -1.4496  0.1661 -1.6607
16155SOL    HW250460   0.013   0.354   3.998  1.2556 -0.3605  2.2668
16156SOL     OW50461   5.894   4.365   0.305  0.7376  0.4343  0.2517
16156SOL    HW150462   5.951   4.436   0.276 -0.8849  1.5114 -0.5147
16156SOL    HW250463   5.891   4.305   0.230  0.3828  0.7026  0.0477
16157SOL     OW50464   8.118   5.210   7.844 -0.1457 -0.9345 -0.2695
16157SOL    HW150465   8.129   5.305   7.839 -0.0784 -0.8755  0.7824
16157SOL    HW250466   8.157   5.178   7.763 -0.2611 -0.0599 -0.6869
16158SOL     OW50467   3.588   0.611   5.500 -0.1984  0.3180 -0.3803
16158SOL    HW150468   3.582   0.700   5.534  0.8546 -0.4016  1.8381
16158SOL    HW250469   3.497   0.581   5.496 -0.4305  0.7933  0.8479
16159SOL     OW50470   2.137   7.273   5.321  0.8576  0.3396 -0.3590
16159SOL    HW150471   2.140   7.257   5.416  2.5287 -0.6813 -0.5492
16159SOL    HW250472   2.182   7.356   5.310 -0.1417  0.9237 -0.2018
16160SOL     OW50473   6.059   3.614   8.318  0.3882  0.6107  0.7492
16160SOL    HW150474   6.115   3.629   8.394 -0.7662  2.2508  1.3392
16160SOL    HW250475   6.119   3.599   8.245  1.5227 -0.3157  1.8421
16161SOL     OW50476   6.821   6.813   4.901  0.1481 -0.4535  0.2463
16161SOL    HW150477   6.904   6.778   4.934  0.8008 -0.4478 -1.2927
16161SOL    HW250478   6.755   6.748   4.928  0.8134 -1.0153  0.5390
16162SOL     OW50479   0.097   6.677   0.309 -0.1144 -0.5127 -0.5623
16162SOL    HW150480   0.048   6.759   0.315  0.8555  0.0201  0.3956
16162SOL    HW250481   0.156   6.678   0.385  0.6689 -1.5989 -1.1229
16163SOL     OW50482   5.399   0.132   1.217  0.0354 -0.6313 -0.1152
16163SOL    HW150483   5.477   0.169   1.175  0.7724 -0.6678  1.1987
16163SOL    HW250484   5.349   0.209   1.245  0.6187 -0.6020  0.8795
16164SOL     OW50485   4.336   2.207   8.217  0.2936 -0.3134 -0.9796
16164SOL    HW150486   4.334   2.166   8.131  0.7665  0.7618 -1.5210
16164SOL    HW250487   4.377   2.292   8.202  0.7456 -0.2651  0.3718
16165SOL     OW50488   0.727   1.769   4.166 -0.2401 -0.2035  0.5038
16165SOL    HW150489   0.650   1.767   4.110 -0.0756 -1.0882  0.2871
16165SOL    HW250490   0.701   1.821   4.242 -1.4919 -1.5604  1.0489
16166SOL     OW50491   3.235   0.927   7.864 -0.3313  0.4121 -0.4388
16166SOL    HW150492   3.314   0.879   7.840 -0.0653  1.7538 -2.4772
16166SOL    HW250493   3.229   0.916   7.959  0.9304 -1.7206 -0.5307
16167SOL     OW50494   3.212   0.063   2.900 -0.3157 -0.8861 -0.1198
16167SOL    HW150495   3.232   0.147   2.940  0.4533 -1.1539  0.0670
16167SOL    HW250496   3.119   0.049   2.919 -0.3824 -0.2093  0.0740
16168SOL     OW50497   3.741   1.203   0.489  0.1187 -0.6440 -0.8429
16168SOL    HW150498   3.687   1.149   0.431  0.3875  0.5679 -2.2906
16168SOL    HW250499   3.800   1.249   0.430  1.3712 -0.4033  0.5399
16169SOL     OW50500   5.325   6.463   3.419  0.1410 -0.2050  0.1065
16169SOL    HW150501   5.418   6.452   3.439 -0.2904 -0.4078  2.1925
16169SOL    HW250502   5.313   6.420   3.334  1.8222 -0.7413  0.1172
16170SOL     OW50503   4.201   0.824   3.765  0.2388 -0.2063  0.1005
16170SOL    HW150504   4.146   0.794   3.837  0.5914 -0.4896  0.2534
16170SOL    HW250505   4.290   0.823   3.801  0.6912 -2.3147 -0.9505
16171SOL     OW50506   0.062   0.912   3.237  0.0097  0.5159  0.1066
16171SOL    HW150507   0.027   0.901   3.326  1.3213  2.0110  0.8706
16171SOL    HW250508  -0.015   0.919   3.181 -0.9178  1.8329  1.4620
16172SOL     OW50509   1.192   7.807   8.792  0.3903  0.5044 -0.1682
16172SOL    HW150510   1.183   7.858   8.712  0.9861 -0.5501 -0.9279
16172SOL    HW250511   1.228   7.869   8.856 -0.5560  1.4798 -0.5523
16173SOL     OW50512   0.424   0.305   5.502 -0.7058  0.3670 -0.0431
16173SOL    HW150513   0.510   0.345   5.494 -0.6215  0.3695  0.8178
16173SOL    HW250514   0.400   0.281   5.412  0.3410  0.0416 -0.2481
16174SOL     OW50515   2.520   8.837   8.791  0.4447  0.0214 -0.3053
16174SOL    HW150516   2.578   8.851   8.716  0.2374  1.2456 -0.2524
16174SOL    HW250517   2.514   8.922   8.833 -1.6526  0.0133 -0.4810
16175SOL     OW50518   7.072   7.607   7.104 -0.2501 -0.1314  0.4379
16175SOL    HW150519   7.125   7.616   7.025 -0.8113 -0.8942 -0.0384
16175SOL    HW250520   7.136   7.584   7.173  0.3135  1.0722  0.3464
16176SOL     OW50521   4.289   6.460   5.432 -0.0554 -0.6064 -0.2799
16176SOL    HW150522   4.282   6.465   5.337  1.0312 -1.1894 -0.4069
16176SOL    HW250523   4.217   6.404   5.459 -2.4081  2.1035 -0.3951
16177SOL     OW50524   3.122   4.898   4.202  0.6925  0.4016 -0.1023
16177SOL    HW150525   3.133   4.966   4.136 -2.8384 -0.8798 -2.2928
16177SOL    HW250526   3.066   4.937   4.268 -1.2857 -0.2412 -1.3303
16178SOL     OW50527   3.958   5.239   4.352 -0.4586  0.5539 -0.6456
16178SOL    HW150528   3.911   5.155   4.362  0.7762  0.0659  1.7457
16178SOL    HW250529   4.032   5.218   4.295 -2.0852  0.9425 -3.0528
16179SOL     OW50530   4.906   6.457   3.359 -0.0889 -0.2637  0.5747
16179SOL    HW150531   4.980   6.496   3.405  0.1276 -1.2262  1.0664
16179SOL    HW250532   4.863   6.402   3.425 -1.0965  0.1018  0.2264
16180SOL     OW50533   4.944   8.560   6.472  0.0505 -0.4059  0.3186
16180SOL    HW150534   4.915   8.647   6.501 -1.6474  0.2656 -2.8817
16180SOL    HW250535   4.889   8.499   6.523  0.1988  0.4195  1.5228
16181SOL     OW50536   3.278   5.236   8.726  0.1284  0.2808  0.2954
16181SOL    HW150537   3.346   5.181   8.764  1.1875 -0.0656 -1.9563
16181SOL    HW250538   3.295   5.324   8.761  2.7496  0.5253 -1.3804
16182SOL     OW50539   6.474   3.585   1.295  0.2350  0.2124 -0.3961
16182SOL    HW150540   6.436   3.538   1.221 -0.1141  0.7502 -0.5612
16182SOL    HW250541   6.410   3.652   1.318  0.9389  0.9392 -0.4837
16183SOL     OW50542   5.824   3.369   1.005  0.9046  0.9301  0.3047
16183SOL    HW150543   5.904   3.353   0.954 -0.1688 -0.2799 -1.1000
16183SOL    HW250544   5.785   3.282   1.016 -0.5195  1.5642  0.4331
16184SOL     OW50545   5.790   3.557   0.351 -0.1903 -0.0336 -0.4841
16184SOL    HW150546   5.793   3.465   0.324 -0.1247  0.0826 -0.8726
16184SOL    HW250547   5.784   3.606   0.269 -2.4191  0.2213 -0.2365
16185SOL     OW50548   2.031   3.940   2.942 -0.4064 -0.1225 -1.1018
16185SOL    HW150549   2.006   3.977   2.857 -1.5572 -0.2118 -0.8267
16185SOL    HW250550   1.950   3.943   2.994  0.0322 -0.9851 -0.3406
16186SOL     OW50551   5.806   5.539   1.314  0.0531 -0.4537 -0.0323
16186SOL    HW150552   5.767   5.509   1.231 -0.6613 -1.9391  0.8045
16186SOL    HW250553   5.844   5.460   1.353 -0.5223  0.0130  1.5454
16187SOL     OW50554   8.230   7.472   8.219 -0.1090 -0.1442 -0.5567
16187SOL    HW150555   8.276   7.424   8.288  0.1357 -1.7579 -1.7812
16187SOL    HW250556   8.293   7.538   8.190 -0.3333  0.7837  0.9478
16188SOL     OW50557   5.000   6.995   2.229  0.3485 -0.1339  0.1918
16188SOL    HW150558   5.016   7.029   2.141 -1.1936  0.4867  0.1349
16188SOL    HW250559   5.085   6.960   2.256  0.6105 -1.3935 -1.9821
16189SOL     OW50560   5.423   7.478   0.607 -0.4647 -0.0234 -0.1700
16189SOL    HW150561   5.371   7.410   0.649  2.0082 -1.4577  0.8475
16189SOL    HW250562   5.513   7.458   0.633  0.4049  3.9803  0.6570
16190SOL     OW50563   4.186   1.244   6.032  0.1199  0.4399 -0.3728
16190SOL    HW150564   4.224   1.162   6.000 -1.5991 -1.1281  1.4102
16190SOL    HW250565   4.236   1.264   6.111 -0.7907 -0.0278  0.3335
16191SOL     OW50566   7.823   1.611   7.976  0.3901  0.5250 -0.3153
16191SOL    HW150567   7.823   1.556   7.898  0.0905 -0.9815  0.7081
16191SOL    HW250568   7.819   1.549   8.049 -0.8899  1.9402  0.8706
16192SOL     OW50569   8.496   0.875   5.995 -0.4028 -0.0145  0.0992
16192SOL    HW150570   8.590   0.859   6.004 -0.6144 -0.7674  1.2000
16192SOL    HW250571   8.456   0.790   6.015 -1.2681 -0.1259 -1.8555
16193SOL     OW50572   7.488   7.178   2.815 -0.0222  0.4405 -0.2740
16193SOL    HW150573   7.447   7.265   2.814  0.7497  0.8133 -1.7682
16193SOL    HW250574   7.526   7.168   2.728  0.4280 -1.1625  0.0717
16194SOL     OW50575   3.008   4.131   1.423 -0.4134 -0.1019 -0.1894
16194SOL    HW150576   3.010   4.070   1.350  1.8690 -0.0519 -0.2597
16194SOL    HW250577   2.969   4.082   1.495 -0.8635 -0.8152 -0.9121
16195SOL     OW50578   1.926   1.372   5.407 -0.6325  0.3257 -0.3028
16195SOL    HW150579   1.855   1.350   5.347 -0.7155 -0.9113  0.2318
16195SOL    HW250580   1.969   1.447   5.366 -1.7237  0.5718 -1.0523
16196SOL     OW50581   2.187   8.574   3.983  0.2692  0.2912  0.0741
16196SOL    HW150582   2.197   8.669   3.978 -0.0127  0.4542  1.8239
16196SOL    HW250583   2.270   8.543   4.020 -0.2819  0.0694  1.1647
16197SOL     OW50584   5.061   3.051   7.355 -0.0585  0.2293 -0.1127
16197SOL    HW150585   5.083   2.984   7.420 -1.4203  0.7801  0.9632
16197SOL    HW250586   5.144   3.071   7.312  0.3816 -2.1158 -0.4640
16198SOL     OW50587   1.024   1.801   5.305  0.0947  0.2129 -0.0872
16198SOL    HW150588   1.087   1.737   5.271  0.9039  0.3129  1.1600
16198SOL    HW250589   1.076   1.861   5.358 -0.9314  0.8063  0.2894
16199SOL     OW50590   7.485   4.303   4.553 -0.3324  0.0618 -0.2582
16199SOL    HW150591   7.523   4.223   4.591  0.4956  0.8959  0.7349
16199SOL    HW250592   7.541   4.324   4.479 -0.7940 -0.4893 -0.7743
16200SOL     OW50593   2.075   1.436   4.765  0.3162 -0.0652 -0.4227
16200SOL    HW150594   2.026   1.385   4.830 -1.5266 -0.1631 -1.7930
16200SOL    HW250595   2.141   1.375   4.732 -0.8883 -1.1467 -0.9611
16201SOL     OW50596   2.976   5.987   7.060  0.2344  0.4398 -0.4565
16201SOL    HW150597   2.914   5.922   7.028  0.8398 -1.0175  1.1468
16201SOL    HW250598   2.963   5.987   7.155  2.5394  0.1785 -0.0821
16202SOL     OW50599   5.920   6.007   0.549  0.1437 -0.4226 -0.4160
16202SOL    HW150600   5.994   6.001   0.489  0.8247  0.2686  0.3204
16202SOL    HW250601   5.856   6.062   0.504  0.9873  0.7750 -0.2079
16203SOL     OW50602   8.059   6.524   3.144 -0.4487 -0.0878 -0.2258
16203SOL    HW150603   8.121   6.597   3.143 -0.7913  0.2076 -1.8447
16203SOL    HW250604   7.976   6.563   3.170 -0.4085 -0.1087 -0.0612
16204SOL     OW50605   7.753   6.891   0.871  0.2099 -0.1593  0.2015
16204SOL    HW150606   7.775   6.899   0.778  0.1631 -0.1879  0.1880
16204SOL    HW250607   7.667   6.932   0.880 -2.0974 -4.1884 -0.6727
16205SOL     OW50608   5.351   3.345   3.639  0.0142 -0.5947  0.2878
16205SOL    HW150609   5.276   3.287   3.646  0.2552 -0.8341  0.9224
16205SOL    HW250610   5.384   3.330   3.551  1.8570 -3.6455  1.3537
16206SOL     OW50611   5.283   1.108   3.584  1.2147  0.4650 -0.4375
16206SOL    HW150612   5.313   1.176   3.524  1.6998  0.7048  0.0754
16206SOL    HW250613   5.228   1.051   3.529  1.5364  0.7568 -1.0770
16207SOL     OW50614   0.723   6.530   0.242  0.4739  0.2970 -0.1206
16207SOL    HW150615   0.682   6.490   0.166 -1.2211  0.8433  0.4738
16207SOL    HW250616   0.817   6.512   0.231 -0.1021 -3.6053 -0.0347
16208SOL     OW50617   3.474   2.994   6.698  0.1214  1.4288 -0.4423
16208SOL    HW150618   3.393   3.018   6.653  0.2899  1.3659 -0.7873
16208SOL    HW250619   3.537   3.061   6.672  0.1811  1.4706 -0.1859
16209SOL     OW50620   3.435   2.305   7.387 -0.1978 -0.3082  0.0001
16209SOL    HW150621   3.349   2.282   7.350  0.5256 -0.7972 -1.4628
16209SOL    HW250622   3.415   2.338   7.474 -1.7462 -1.7910  0.2727
16210SOL     OW50623   3.317   2.386   5.596  0.4253 -0.1318 -0.9932
16210SOL    HW150624   3.241   2.443   5.586  0.5010 -0.4662 -5.3123
16210SOL    HW250625   3.280   2.297   5.592  0.8957 -0.3004 -1.7503
16211SOL     OW50626   4.040   6.626   5.440 -0.0111 -0.1306  0.5386
16211SOL    HW150627   4.135   6.636   5.436 -0.1756  2.5786  1.4637
16211SOL    HW250628   4.025   6.531   5.434  2.6876 -0.5794 -0.1194
16212SOL     OW50629   0.765   5.947   5.242 -0.6024  0.5388 -0.2537
16212SOL    HW150630   0.841   5.895   5.215 -2.5040 -2.0576 -0.9241
16212SOL    HW250631   0.749   5.921   5.332 -1.6369 -0.1324 -0.6251
16213SOL     OW50632   6.434   3.789   6.964  0.4210 -0.9361 -0.5875
16213SOL    HW150633   6.498   3.785   6.893  1.4995  0.4031  0.2833
16213SOL    HW250634   6.457   3.716   7.021 -0.6518 -2.2241 -1.7234
16214SOL     OW50635   7.117   2.534   8.380 -0.5469 -0.3480  0.1798
16214SOL    HW150636   7.125   2.629   8.388 -0.0644 -0.2296 -1.3016
16214SOL    HW250637   7.202   2.505   8.346 -0.7839 -1.2686  0.3318
16215SOL     OW50638   5.042   1.526   8.229 -0.0341  0.0876  0.2805
16215SOL    HW150639   5.131   1.542   8.199 -0.7180  1.0362 -1.4176
16215SOL    HW250640   5.012   1.454   8.173 -0.4598  0.0468  0.5607
16216SOL     OW50641   1.812   6.595   7.426  0.4989 -0.0311  0.2795
16216SOL    HW150642   1.722   6.613   7.401 -0.0006  0.2048  2.1300
16216SOL    HW250643   1.836   6.517   7.375  0.1594  1.3540 -2.1377
16217SOL     OW50644   4.047   6.253   7.815  0.2322  0.3293  0.4235
16217SOL    HW150645   4.011   6.341   7.807 -0.8677 -0.2748 -3.1925
16217SOL    HW250646   4.114   6.248   7.747  0.3478 -1.5758  0.6132
16218SOL     OW50647   7.173   7.932   3.876 -0.1346  0.2952 -0.3040
16218SOL    HW150648   7.149   7.974   3.958  0.5321  0.2141 -0.0609
16218SOL    HW250649   7.234   7.993   3.834  1.1736 -0.5840  0.2441
16219SOL     OW50650   5.484   1.197   5.950 -0.3726  0.1233 -0.4132
16219SOL    HW150651   5.520   1.180   6.037 -0.8192  0.8282 -0.0807
16219SOL    HW250652   5.397   1.157   5.951 -1.6564  2.6726  0.5600
16220SOL     OW50653   0.891   5.640   0.683  0.8859  0.1133 -0.1252
16220SOL    HW150654   0.934   5.557   0.705  1.0276  0.5497  1.3689
16220SOL    HW250655   0.958   5.689   0.635  1.3694 -0.0079  0.4056
16221SOL     OW50656   1.951   2.523   4.818  0.2780 -0.7828  0.6136
16221SOL    HW150657   2.044   2.502   4.828  0.7707  1.2896  0.9405
16221SOL    HW250658   1.944   2.561   4.731 -0.1283 -0.4075  0.8041
16222SOL     OW50659   1.231   7.748   6.768 -0.5404 -0.3387 -0.3203
16222SOL    HW150660   1.230   7.831   6.720  2.3982  1.2551  1.9872
16222SOL    HW250661   1.230   7.681   6.700 -1.1899  1.5978 -2.3684
16223SOL     OW50662   5.692   1.216   4.937 -0.7939 -0.0294  0.3006
16223SOL    HW150663   5.610   1.225   4.984 -0.6128  0.8687  0.4723
16223SOL    HW250664   5.755   1.266   4.988 -0.2957 -0.1373 -0.1909
16224SOL     OW50665   4.792   6.652   7.109 -0.7998 -0.4096  0.1956
16224SOL    HW150666   4.741   6.697   7.042 -1.9707 -0.4905  1.0065
16224SOL    HW250667   4.867   6.615   7.061 -0.6020  1.0966 -0.7269
16225SOL     OW50668   4.522   6.854   1.173  0.1008  0.1589 -0.4560
16225SOL    HW150669   4.501   6.946   1.159 -1.5004 -0.3998 -2.1616
16225SOL    HW250670   4.604   6.841   1.125 -0.1229  0.5053 -0.9390
16226SOL     OW50671   8.325   7.098   5.160  0.1137  0.0175 -0.0853
16226SOL    HW150672   8.294   7.069   5.245 -1.4508 -0.5950 -0.8258
16226SOL    HW250673   8.276   7.178   5.141  1.2306  0.7532  0.0336
16227SOL     OW50674   3.371   1.778   8.296 -0.4200 -0.1068 -0.1451
16227SOL    HW150675   3.435   1.834   8.340 -0.9840  0.6853 -0.3145
16227SOL    HW250676   3.421   1.700   8.271 -0.2588 -0.9905  2.6030
16228SOL     OW50677   3.617   5.328   1.374  0.5512 -0.3914  0.2524
16228SOL    HW150678   3.682   5.259   1.381 -0.1806 -1.1445 -0.1651
16228SOL    HW250679   3.550   5.292   1.315  0.2131  0.7172 -0.0622
16229SOL     OW50680   8.211   7.460   5.690 -0.6597 -0.1724  0.5476
16229SOL    HW150681   8.220   7.480   5.596 -0.5027 -2.5678 -0.0030
16229SOL    HW250682   8.117   7.446   5.702 -0.7643  0.7495  0.9254
16230SOL     OW50683   2.808   1.511   7.140 -0.3663  0.3793 -0.2299
16230SOL    HW150684   2.818   1.434   7.083  0.5464 -0.6286  1.2299
16230SOL    HW250685   2.719   1.501   7.176 -1.0749  1.1956 -1.6625
16231SOL     OW50686   6.747   7.753   6.152 -0.9639  0.1985 -0.1271
16231SOL    HW150687   6.710   7.787   6.070 -1.2078  1.7534  0.6003
16231SOL    HW250688   6.766   7.831   6.204 -1.1724 -0.7791  1.4712
16232SOL     OW50689   4.027   3.639   7.601 -0.0627 -0.2123  0.0871
16232SOL    HW150690   3.990   3.617   7.515  0.3128  1.9764 -0.7249
16232SOL    HW250691   4.122   3.629   7.589  0.3108  3.2175 -0.9130
16233SOL     OW50692   1.394   8.429   3.789 -0.6980  0.4376  0.5742
16233SOL    HW150693   1.483   8.411   3.758 -0.7362  1.2187 -0.0115
16233SOL    HW250694   1.387   8.379   3.870  0.6800  1.2342  1.2285
16234SOL     OW50695   6.673   3.358   4.156  0.0615 -0.0805  0.5337
16234SOL    HW150696   6.596   3.412   4.172  0.1196 -0.2390  1.3964
16234SOL    HW250697   6.740   3.395   4.214  0.0199 -1.2488  1.3616
16235SOL     OW50698   1.786   3.889   4.399  0.1588  0.0772  0.1917
16235SOL    HW150699   1.808   3.809   4.351 -0.1807 -0.6831  1.2777
16235SOL    HW250700   1.694   3.878   4.423  0.2301  0.5996  0.7189
16236SOL     OW50701   1.449   3.580   2.655 -0.6007  0.5337  0.1938
16236SOL    HW150702   1.415   3.614   2.572  2.5022 -1.7891 -2.2934
16236SOL    HW250703   1.431   3.486   2.652  3.1251 -0.3645 -0.0653
16237SOL     OW50704   6.978   1.643   8.706  0.1712 -0.6743  0.2928
16237SOL    HW150705   6.945   1.580   8.769 -0.0993 -1.1002 -0.2654
16237SOL    HW250706   6.967   1.728   8.749 -0.2564 -0.9347  0.7071
16238SOL     OW50707   6.286   3.867   5.112  0.5229 -0.9356 -0.0317
16238SOL    HW150708   6.294   3.816   5.032  0.3596 -1.0878  0.0501
16238SOL    HW250709   6.202   3.842   5.149 -0.1809  0.3773 -0.6800
16239SOL     OW50710   2.512   5.987   2.178 -0.6709 -0.3478 -0.5475
16239SOL    HW150711   2.599   5.974   2.142 -0.6883 -0.0783 -0.6905
16239SOL    HW250712   2.452   5.954   2.111 -0.6536 -1.5099 -0.0126
16240SOL     OW50713   8.633   0.448   1.255 -0.4304  0.0545 -0.1140
16240SOL    HW150714   8.703   0.385   1.277 -0.3305 -0.2016 -1.1213
16240SOL    HW250715   8.589   0.464   1.338  1.3285  0.8545  0.7249
16241SOL     OW50716   6.986   6.699   6.271 -0.2374  0.1911 -0.0133
16241SOL    HW150717   7.030   6.775   6.232 -0.2764  0.3412  0.2339
16241SOL    HW250718   6.898   6.730   6.290 -0.3171  0.0205 -0.1057
16242SOL     OW50719   6.177   5.356   1.281 -0.2591  0.3480 -0.2212
16242SOL    HW150720   6.246   5.406   1.325 -0.6574 -1.2262  2.3772
16242SOL    HW250721   6.223   5.284   1.237 -0.1052  0.2784  0.0539
16243SOL     OW50722   1.520   0.074   8.504 -0.1355 -0.3211  0.3134
16243SOL    HW150723   1.454   0.120   8.555  1.4044  1.4074  0.8752
16243SOL    HW250724   1.499   0.095   8.413 -0.6673 -0.2283  0.4541
16244SOL     OW50725   8.404   4.004   4.720 -0.0809  0.2287  0.0012
16244SOL    HW150726   8.466   4.044   4.781 -0.0659  1.2085 -0.6160
16244SOL    HW250727   8.341   3.958   4.775  1.2812 -0.9561  0.6434
16245SOL     OW50728   8.386   0.759   7.266 -0.3048  0.2218 -0.5892
16245SOL    HW150729   8.358   0.776   7.356 -1.2039 -0.9518 -0.6168
16245SOL    HW250730   8.407   0.845   7.230 -0.5359  0.7678  0.5438
16246SOL     OW50731   0.753   6.465   8.354  0.1713 -0.1789  0.5378
16246SOL    HW150732   0.695   6.538   8.373  0.2335  0.5114 -1.6179
16246SOL    HW250733   0.733   6.399   8.420 -1.3243  0.9966  1.2947
16247SOL     OW50734   4.292   1.015   1.026 -0.4772 -0.3632  0.4812
16247SOL    HW150735   4.302   1.106   0.999 -0.0741 -0.8941 -1.2891
16247SOL    HW250736   4.324   1.013   1.117  0.5784  1.0258  0.1700
16248SOL     OW50737   6.765   4.190   1.823  0.1507  0.3607  0.0805
16248SOL    HW150738   6.686   4.218   1.869  0.3324  1.4482 -0.2524
16248SOL    HW250739   6.778   4.255   1.755  0.9002 -0.2469 -0.3709
16249SOL     OW50740   3.799   5.659   4.792  0.2316  0.2735  0.1339
16249SOL    HW150741   3.759   5.678   4.877 -0.9491 -1.0096 -0.0926
16249SOL    HW250742   3.854   5.734   4.774 -0.6914  1.2778  1.3272
16250SOL     OW50743   6.661   0.582   4.376 -0.0975  0.6441  0.2701
16250SOL    HW150744   6.587   0.563   4.433  0.9245 -1.0120  1.1397
16250SOL    HW250745   6.701   0.660   4.413 -1.2878  1.4475 -0.1069
16251SOL     OW50746   1.629   4.020   5.383 -0.2983  0.4420 -0.8814
16251SOL    HW150747   1.711   4.045   5.340 -0.5013  1.0562 -0.9177
16251SOL    HW250748   1.562   4.034   5.317 -0.3875 -0.4980 -1.0004
16252SOL     OW50749   3.867   5.427   5.208 -0.0638 -0.2256  0.0117
16252SOL    HW150750   3.924   5.384   5.273 -1.5822 -1.2598  0.7316
16252SOL    HW250751   3.778   5.402   5.235 -0.9976  2.6072 -0.1225
16253SOL     OW50752   8.549   7.184   4.121 -0.4602  0.3327  0.0756
16253SOL    HW150753   8.460   7.212   4.098 -0.3351  0.9187  0.3147
16253SOL    HW250754   8.604   7.219   4.051 -0.7341 -2.5563 -1.8184
16254SOL     OW50755   2.053   7.890   0.040 -0.2162 -0.2219  0.5174
16254SOL    HW150756   2.035   7.919  -0.050 -1.8071 -0.9286  0.5755
16254SOL    HW250757   2.125   7.946   0.069 -0.0842  0.4382 -0.9798
16255SOL     OW50758   8.684   6.138   8.549  0.6255  0.2814  0.1792
16255SOL    HW150759   8.734   6.064   8.515  0.6152  0.4913 -0.2929
16255SOL    HW250760   8.738   6.172   8.620  1.2834  0.6666 -0.4970
16256SOL     OW50761   1.990   4.965   3.401  0.0777  0.0678 -0.1719
16256SOL    HW150762   1.971   4.871   3.395  0.8309 -0.1071  0.1162
16256SOL    HW250763   1.916   5.007   3.357  0.4035 -0.7162 -1.5347
16257SOL     OW50764   3.252   3.458   1.099 -0.0621  0.1531  0.1312
16257SOL    HW150765   3.183   3.510   1.141  0.4017  0.6711  0.2686
16257SOL    HW250766   3.333   3.497   1.131  0.3526  1.6054 -2.3837
16258SOL     OW50767   4.961   2.225   0.336 -0.6014  0.0031  0.5119
16258SOL    HW150768   4.911   2.306   0.346  0.4012  0.5929  0.9076
16258SOL    HW250769   4.921   2.165   0.400 -1.6101  0.0323 -0.0647
16259SOL     OW50770   0.193   7.487   5.626  0.5692  0.0940 -0.3536
16259SOL    HW150771   0.172   7.550   5.695  0.8280 -1.8841  1.6337
16259SOL    HW250772   0.287   7.496   5.612  0.7435 -0.3345  0.4721
16260SOL     OW50773   0.703   1.114   0.819  0.2579  0.2363  1.1090
16260SOL    HW150774   0.630   1.053   0.824 -1.5329  2.2044  0.5405
16260SOL    HW250775   0.779   1.060   0.798 -1.2582 -1.7497  0.4984
16261SOL     OW50776   0.468   0.013   1.114  0.1945 -0.2866 -0.3898
16261SOL    HW150777   0.452  -0.042   1.191 -0.2278  0.1919 -0.1289
16261SOL    HW250778   0.508  -0.046   1.050  0.7500 -0.6420  0.2680
16262SOL     OW50779   2.695   4.118   0.813  0.4235  0.2850 -0.0677
16262SOL    HW150780   2.610   4.159   0.828 -0.2348 -0.8406 -0.5968
16262SOL    HW250781   2.757   4.190   0.816 -0.2855  0.9035  2.3482
16263SOL     OW50782   6.978   0.663   7.361 -0.7529 -0.1462 -0.1942
16263SOL    HW150783   7.070   0.668   7.334 -0.8379 -1.0306 -0.6708
16263SOL    HW250784   6.928   0.680   7.281 -1.0013 -2.1852 -0.5260
16264SOL     OW50785   3.105   0.625   2.316  0.6253  0.2396  0.3321
16264SOL    HW150786   3.095   0.532   2.295  0.2163  0.3257  0.1494
16264SOL    HW250787   3.108   0.627   2.412  1.8679 -0.0845  0.3204
16265SOL     OW50788   4.770   8.127   1.801 -0.3677 -0.2629 -0.1901
16265SOL    HW150789   4.785   8.219   1.780 -0.4090 -0.1600  0.2170
16265SOL    HW250790   4.695   8.128   1.861 -0.2644 -0.5462 -0.0517
16266SOL     OW50791   7.105   7.577   8.789 -0.7398 -0.4020  0.3627
16266SOL    HW150792   7.063   7.509   8.737 -0.8642 -0.4556  0.5335
16266SOL    HW250793   7.179   7.533   8.832 -1.6670 -0.7833  1.6183
16267SOL     OW50794   8.558   6.175   5.194 -0.0672 -0.1671 -0.3206
16267SOL    HW150795   8.604   6.206   5.116  0.8662  1.7796  0.9204
16267SOL    HW250796   8.560   6.080   5.187  1.2539 -0.0640 -1.9537
16268SOL     OW50797   7.271   5.732   2.336 -0.5326  0.7504  0.1350
16268SOL    HW150798   7.337   5.723   2.268 -0.5801 -0.5308  0.2264
16268SOL    HW250799   7.187   5.727   2.289 -0.7442 -4.4099  0.4720
16269SOL     OW50800   6.981   1.315   4.046 -0.1890  0.2800  0.3851
16269SOL    HW150801   6.937   1.249   3.992 -0.9324  1.8783 -1.0521
16269SOL    HW250802   7.041   1.264   4.101 -0.4539 -1.5533 -0.9134
16270SOL     OW50803   1.574   1.372   7.752  0.4853  0.7044  0.2833
16270SOL    HW150804   1.631   1.443   7.782  0.6717 -0.2875  2.4057
16270SOL    HW250805   1.600   1.296   7.804 -1.5625 -0.2450  0.0090
16271SOL     OW50806   2.813   4.995   8.462 -0.2778  0.1173  0.0607
16271SOL    HW150807   2.821   5.072   8.517 -0.3350 -0.5885  1.0761
16271SOL    HW250808   2.811   5.029   8.372  0.3936  1.2332  0.4630
16272SOL     OW50809   6.512   0.555   5.325  0.2812  0.4903 -0.5071
16272SOL    HW150810   6.577   0.494   5.290  0.6419  0.1434  0.7224
16272SOL    HW250811   6.486   0.609   5.250  0.8221 -0.4011 -1.3537
16273SOL     OW50812   2.764   1.157   8.057  0.3560  0.1761 -0.3658
16273SOL    HW150813   2.759   1.150   7.962  0.6451 -1.0273 -0.3007
16273SOL    HW250814   2.857   1.162   8.076  0.2807  2.5362 -0.2502
16274SOL     OW50815   2.667   6.880   0.075  0.0119 -0.4125  0.4920
16274SOL    HW150816   2.636   6.922  -0.005 -2.1464  3.1667  2.9289
16274SOL    HW250817   2.762   6.893   0.074 -0.0633  0.2314 -1.0993
16275SOL     OW50818   1.244   8.487   0.416  0.5690  0.7041 -0.0597
16275SOL    HW150819   1.203   8.432   0.349 -0.1451  0.3925  0.6175
16275SOL    HW250820   1.190   8.475   0.494  0.7511  1.9012  0.2775
16276SOL     OW50821   1.693   8.709   1.991  0.0201  0.3643  0.2357
16276SOL    HW150822   1.607   8.732   1.957 -0.4243 -0.6839  0.6019
16276SOL    HW250823   1.683   8.712   2.086  0.5060  0.6568  0.2803
16277SOL     OW50824   2.424   4.107   7.448  0.2541 -0.3082  0.2241
16277SOL    HW150825   2.365   4.173   7.484  0.0958 -0.2799 -0.0846
16277SOL    HW250826   2.470   4.072   7.524 -0.6352 -0.8029  0.5543
16278SOL     OW50827   0.934   6.192   1.072 -0.4077 -0.1030 -0.4262
16278SOL    HW150828   0.996   6.140   1.123 -1.0295 -0.6126 -0.1809
16278SOL    HW250829   0.989   6.241   1.011  0.2740 -0.1786  0.1106
16279SOL     OW50830   1.489   5.554   4.072 -0.2787  0.1357  0.1813
16279SOL    HW150831   1.550   5.587   4.006  0.8350  0.1145  1.1669
16279SOL    HW250832   1.404   5.557   4.029  0.3110  0.8166 -1.0033
16280SOL     OW50833   6.344   4.690   7.401 -0.1728  0.0378 -0.7579
16280SOL    HW150834   6.328   4.652   7.487  0.8614  0.5536 -0.3095
16280SOL    HW250835   6.384   4.619   7.350 -0.9601 -0.3228 -0.8783
16281SOL     OW50836   7.159   2.619   7.247  0.4872 -0.2568  0.2141
16281SOL    HW150837   7.153   2.565   7.326  0.5518 -0.2332  0.2349
16281SOL    HW250838   7.077   2.668   7.245 -0.7613 -2.2361 -1.1736
16282SOL     OW50839   5.298   8.256   7.995 -0.1019 -0.0801  0.3785
16282SOL    HW150840   5.209   8.281   8.017 -0.5563 -0.7660 -0.5886
16282SOL    HW250841   5.302   8.261   7.899  0.9579  0.1315  0.4168
16283SOL     OW50842   3.446   8.423   6.400  0.6540 -0.3845  0.5912
16283SOL    HW150843   3.368   8.369   6.388  0.8992 -0.3470 -1.6384
16283SOL    HW250844   3.424   8.507   6.358  1.8510 -0.3454  0.0004
16284SOL     OW50845   7.157   2.020   8.368 -0.5832 -0.2444 -0.0657
16284SOL    HW150846   7.082   2.054   8.416  0.4764  1.4438  0.4947
16284SOL    HW250847   7.220   1.995   8.436  0.7242  1.6766 -0.4704
16285SOL     OW50848   2.293   5.905   4.883  0.2878  0.0354 -0.4069
16285SOL    HW150849   2.272   5.973   4.819 -1.0509 -0.1708 -0.2054
16285SOL    HW250850   2.255   5.937   4.965 -1.0338 -1.2988 -0.4727
16286SOL     OW50851   0.447   4.202   6.517  1.0295  0.1112 -0.5061
16286SOL    HW150852   0.388   4.237   6.449  0.4467  2.2015  0.9445
16286SOL    HW250853   0.535   4.225   6.487  1.2006 -2.7009 -2.5105
16287SOL     OW50854   0.739   4.220   6.820  0.1860 -0.1354 -0.3605
16287SOL    HW150855   0.731   4.269   6.738  0.6794 -1.8978 -1.5147
16287SOL    HW250856   0.651   4.219   6.857  0.1221  1.3986 -0.3890
16288SOL     OW50857   5.729   6.220   3.383  0.6911 -0.0066 -0.3486
16288SOL    HW150858   5.658   6.167   3.346  1.8685 -1.0280 -1.2576
16288SOL    HW250859   5.748   6.285   3.315 -0.4387  1.3114  0.5726
16289SOL     OW50860   2.821   1.261   6.156 -0.3086  0.6101 -0.0711
16289SOL    HW150861   2.898   1.218   6.194 -1.3640 -2.4158 -1.0473
16289SOL    HW250862   2.828   1.243   6.062 -3.0218 -1.3491 -0.0060
16290SOL     OW50863   2.830   3.291   4.605 -0.3081 -0.0966 -0.4179
16290SOL    HW150864   2.825   3.386   4.611  2.7836  0.1301  0.6559
16290SOL    HW250865   2.855   3.262   4.693 -1.8828 -2.0229 -0.5274
16291SOL     OW50866   3.837   2.203   0.155  0.0991  0.4106  0.1484
16291SOL    HW150867   3.788   2.125   0.179  1.4823 -0.4406  0.2878
16291SOL    HW250868   3.855   2.192   0.061 -0.9691  1.3002 -0.1852
16292SOL     OW50869   6.263   5.386   5.962  0.3542  0.2382  0.6700
16292SOL    HW150870   6.221   5.448   6.022 -0.2928  0.5056 -0.0247
16292SOL    HW250871   6.357   5.400   5.974  0.2917 -0.8121  2.7125
16293SOL     OW50872   2.756   3.633   6.325  0.1093 -0.2652  0.0342
16293SOL    HW150873   2.789   3.547   6.351  1.4595 -0.0291 -0.7827
16293SOL    HW250874   2.744   3.625   6.230 -2.3054 -0.3445  0.2801
16294SOL     OW50875   6.175   0.202   4.059  0.0869  0.9501  0.0253
16294SOL    HW150876   6.189   0.118   4.016 -0.4989  0.0418  1.5345
16294SOL    HW250877   6.220   0.194   4.143 -2.4354  0.9989  1.4584
16295SOL     OW50878   3.441   3.571   3.684 -0.3918 -0.3748  0.8210
16295SOL    HW150879   3.455   3.641   3.620 -0.6986 -0.8428  0.2261
16295SOL    HW250880   3.387   3.612   3.752  0.2066  0.2191  0.9459
16296SOL     OW50881   0.800   8.510   7.836  0.1521 -0.1364  0.0704
16296SOL    HW150882   0.874   8.449   7.833  1.5352  1.3703  1.6124
16296SOL    HW250883   0.794   8.544   7.746  1.7557  0.1435  0.0336
16297SOL     OW50884   4.315   1.155   6.894  0.8710 -0.2412  0.0174
16297SOL    HW150885   4.292   1.154   6.987  1.1138 -0.1857  0.0784
16297SOL    HW250886   4.411   1.149   6.893  0.8304 -0.8962 -0.2482
16298SOL     OW50887   5.138   3.806   6.311  0.0952  0.2048  0.1896
16298SOL    HW150888   5.229   3.803   6.280 -0.0048 -0.8532 -0.0297
16298SOL    HW250889   5.131   3.891   6.354  0.8601  0.7820 -0.7770
16299SOL     OW50890   0.288   0.262   7.263 -0.1093 -0.3793  0.5513
16299SOL    HW150891   0.323   0.347   7.238 -1.0004 -0.3995 -0.8911
16299SOL    HW250892   0.197   0.280   7.285 -0.5434 -1.0587 -0.5961
16300SOL     OW50893   4.760   0.826   4.309 -0.3534 -0.1329  0.3007
16300SOL    HW150894   4.719   0.768   4.244  0.5016 -1.3521  0.8127
16300SOL    HW250895   4.853   0.824   4.288 -0.1507  0.0079  1.1451
16301SOL     OW50896   2.817   1.947   8.873 -0.0837  0.2190  0.0278
16301SOL    HW150897   2.876   1.943   8.949  0.0666 -0.9271 -0.1242
16301SOL    HW250898   2.741   1.997   8.904 -0.2920 -0.7403  1.1384
16302SOL     OW50899   3.586   4.733   1.813 -0.3259  0.0458  0.0730
16302SOL    HW150900   3.636   4.813   1.794  1.2476 -1.1851 -1.2563
16302SOL    HW250901   3.532   4.756   1.889  1.7888  1.6361  1.1849
16303SOL     OW50902   1.375   2.345   0.556  0.1408 -0.3509 -0.0951
16303SOL    HW150903   1.357   2.295   0.635  1.9994 -0.1575  0.5108
16303SOL    HW250904   1.408   2.429   0.588  0.4983 -0.1076 -1.0723
16304SOL     OW50905   4.988   1.945   8.883  0.2658 -0.4249 -0.5987
16304SOL    HW150906   5.082   1.936   8.898  0.3071  2.4080  1.8125
16304SOL    HW250907   4.947   1.900   8.957 -0.2887 -0.8435 -1.1396
16305SOL     OW50908   3.565   2.724   5.756 -0.7074  0.0506  0.1329
16305SOL    HW150909   3.658   2.747   5.760 -0.4368 -1.0394  0.2154
16305SOL    HW250910   3.550   2.702   5.664  0.0512 -3.4290  0.7053
16306SOL     OW50911   1.297   0.038   8.180  0.7464 -0.4375  0.5171
16306SOL    HW150912   1.213   0.067   8.144  0.8345 -0.0702  0.6060
16306SOL    HW250913   1.274  -0.030   8.244  0.4506  0.2654  1.1693
16307SOL     OW50914   8.391   8.599   8.320 -0.0940 -0.9898  0.4076
16307SOL    HW150915   8.407   8.506   8.337  2.4434 -0.7130 -0.0692
16307SOL    HW250916   8.375   8.637   8.406  1.3874 -1.4862  0.9321
16308SOL     OW50917   5.359   8.301   4.407  0.5612 -0.1483 -0.0703
16308SOL    HW150918   5.420   8.275   4.476 -0.3569  1.9783  1.6683
16308SOL    HW250919   5.369   8.396   4.402 -0.1090 -0.1457 -2.2471
16309SOL     OW50920   2.391   2.816   0.977  0.2457  0.2340  0.0142
16309SOL    HW150921   2.404   2.793   1.069 -0.4613 -2.2801 -0.4401
16309SOL    HW250922   2.470   2.784   0.933 -0.1448 -0.0666 -0.4715
16310SOL     OW50923   4.483   7.462   1.239  0.0563 -0.3133  0.5794
16310SOL    HW150924   4.454   7.476   1.329 -0.6280 -0.1910  0.3469
16310SOL    HW250925   4.517   7.372   1.238  1.6251  0.2304  1.3457
16311SOL     OW50926   2.980   0.893   0.302  0.0221 -0.0462 -0.2029
16311SOL    HW150927   2.914   0.832   0.268  0.8017 -0.5881 -0.7898
16311SOL    HW250928   3.004   0.947   0.227 -0.6577  1.0072  0.3136
16312SOL     OW50929   3.422   8.044   0.067 -0.7670 -0.5687 -0.3354
16312SOL    HW150930   3.452   8.099   0.139 -2.1161 -2.0382  1.4763
16312SOL    HW250931   3.499   8.032   0.012  0.6070 -0.1858  1.4090
16313SOL     OW50932   6.261   1.459   2.520  0.0652  0.0887 -0.6440
16313SOL    HW150933   6.264   1.417   2.606 -3.1388  2.2095  0.6846
16313SOL    HW250934   6.188   1.416   2.475 -2.0465  2.6717  0.0372
16314SOL     OW50935   2.031   8.395   1.572  0.2668 -0.4414  0.1739
16314SOL    HW150936   2.123   8.377   1.552 -0.1739 -1.8142 -0.7566
16314SOL    HW250937   2.015   8.482   1.536  0.5574 -1.2197 -1.9560
16315SOL     OW50938   7.278   4.759   2.761  0.4069  0.3402 -0.0219
16315SOL    HW150939   7.310   4.791   2.677  0.4761 -0.3728 -0.2737
16315SOL    HW250940   7.198   4.810   2.777 -1.3775 -1.6101 -2.0282
16316SOL     OW50941   3.663   7.240   7.178  0.2746  0.3781 -0.0595
16316SOL    HW150942   3.638   7.166   7.233  1.0602  0.4827  0.4495
16316SOL    HW250943   3.579   7.281   7.155 -0.0923  0.0946  0.7247
16317SOL     OW50944   4.576   7.349   7.238  0.2219 -0.4469  0.4339
16317SOL    HW150945   4.612   7.418   7.181  1.2599  0.4805  2.1062
16317SOL    HW250946   4.595   7.267   7.192  0.0654  0.3079 -1.0277
16318SOL     OW50947   3.241   0.188   6.984 -0.0841  0.2314 -0.2270
16318SOL    HW150948   3.307   0.239   7.032 -1.4218  0.8377  1.0626
16318SOL    HW250949   3.242   0.102   7.026 -1.3363  0.7976  1.0513
16319SOL     OW50950   1.994   1.564   0.298 -0.3613 -0.2931 -0.2846
16319SOL    HW150951   1.980   1.547   0.391 -2.3975 -0.4112 -0.5637
16319SOL    HW250952   1.958   1.652   0.284 -1.8718 -1.0369 -1.3011
16320SOL     OW50953   7.429   3.545   1.275 -0.1657 -0.4110  0.1372
16320SOL    HW150954   7.448   3.630   1.314  1.4189  0.0113 -1.4509
16320SOL    HW250955   7.460   3.481   1.339  2.7431  0.2631 -0.4857
16321SOL     OW50956   1.183   3.090   3.646 -0.3758 -0.0919  0.0665
16321SOL    HW150957   1.199   3.181   3.620  0.1228  0.2252  1.4491
16321SOL    HW250958   1.158   3.047   3.564  1.6511  0.7492 -1.0727
16322SOL     OW50959   0.315   8.693   4.969 -0.2945  0.1550 -0.1246
16322SOL    HW150960   0.377   8.628   5.003  0.7750  1.5932  0.7709
16322SOL    HW250961   0.334   8.696   4.875  0.9323  0.4773  0.1110
16323SOL     OW50962   5.511   8.754   4.657 -0.4574  0.0407  0.0234
16323SOL    HW150963   5.588   8.715   4.614 -0.3838  1.3046 -1.0547
16323SOL    HW250964   5.536   8.760   4.749 -0.1408 -1.6206  0.0736
16324SOL     OW50965   8.871   6.013   3.007  0.3721 -0.2393 -0.0903
16324SOL    HW150966   8.775   6.019   3.001  0.5136  2.2734 -0.8416
16324SOL    HW250967   8.903   6.083   2.949  2.6325  0.0343  1.3934
16325SOL     OW50968   7.634   2.816   0.184 -0.4439 -0.2521  0.0919
16325SOL    HW150969   7.655   2.909   0.194  3.0205 -0.8692 -0.4118
16325SOL    HW250970   7.707   2.779   0.136 -1.9833 -3.1968 -0.2319
16326SOL     OW50971   8.158   4.311   7.943 -0.5536  0.3126  0.0044
16326SOL    HW150972   8.073   4.336   7.978 -0.7341  0.2902 -0.4057
16326SOL    HW250973   8.152   4.217   7.929  0.0638  0.0491  1.3816
16327SOL     OW50974   1.862   0.100   1.139  0.1497 -0.0982 -0.4092
16327SOL    HW150975   1.821   0.014   1.132  1.5194 -0.8324  0.2174
16327SOL    HW250976   1.790   0.162   1.127 -2.0530 -1.1920  4.6850
16328SOL     OW50977   4.731   5.645   4.665 -0.4063 -0.7139 -0.6761
16328SOL    HW150978   4.819   5.606   4.665 -1.0772 -2.3328 -1.7722
16328SOL    HW250979   4.673   5.571   4.683 -1.6211  0.1675 -0.8700
16329SOL     OW50980   8.733   4.159   7.205  0.2954 -0.0676  0.3641
16329SOL    HW150981   8.812   4.131   7.251  2.3928  1.2246 -2.1820
16329SOL    HW250982   8.765   4.209   7.130 -2.9395 -0.3480 -1.3913
16330SOL     OW50983   8.741   7.801   7.245  0.0645 -0.1886  0.1520
16330SOL    HW150984   8.811   7.800   7.179  1.5212  0.8155  1.5777
16330SOL    HW250985   8.701   7.715   7.239  1.1431 -0.6425 -1.0362
16331SOL     OW50986   6.751   2.090   3.477 -0.3126  0.5598 -0.5564
16331SOL    HW150987   6.684   2.117   3.539 -0.1742 -0.2568 -0.0367
16331SOL    HW250988   6.702   2.069   3.397 -0.8620 -1.1447  0.1618
16332SOL     OW50989   2.481   6.935   8.204  0.4749  0.6961  0.1419
16332SOL    HW150990   2.447   6.962   8.118  1.5643 -0.7339 -0.7726
16332SOL    HW250991   2.403   6.909   8.253  0.0262 -1.3029 -1.4751
16333SOL     OW50992   6.171   7.271   3.666  0.0029 -0.1859 -0.2987
16333SOL    HW150993   6.214   7.291   3.750  0.3393 -1.2329 -0.2071
16333SOL    HW250994   6.235   7.217   3.619 -1.5321 -2.5979  0.2130
16334SOL     OW50995   2.542   8.040   8.379 -0.1156  0.0585 -0.4959
16334SOL    HW150996   2.514   8.073   8.294  1.2150 -1.4557 -1.5773
16334SOL    HW250997   2.471   7.983   8.408 -0.6693  0.7526 -0.4452
16335SOL     OW50998   0.879   8.330   4.083  0.0853  0.3072  0.3549
16335SOL    HW150999   0.933   8.314   4.006 -1.7360  2.1565 -1.3970
16335SOL    HW251000   0.941   8.362   4.149  1.2261  2.4101 -1.5897
16336SOL     OW51001   0.086   0.442   6.351  0.0760 -0.6151 -0.2397
16336SOL    HW151002   0.080   0.358   6.397 -0.2782 -0.9846 -0.9472
16336SOL    HW251003   0.026   0.433   6.278  1.5041 -0.4722 -1.4724
16337SOL     OW51004   5.930   0.300   2.404 -0.2891  0.2759 -0.2153
16337SOL    HW151005   5.846   0.276   2.364 -1.3439  1.8578  0.9355
16337SOL    HW251006   5.910   0.309   2.498  1.5010 -0.6746  0.3095
16338SOL     OW51007   4.028   5.162   1.623  0.3073 -0.1567 -0.2250
16338SOL    HW151008   4.103   5.220   1.609 -1.1892  1.7573 -0.7971
16338SOL    HW251009   3.981   5.164   1.540 -0.2639 -1.4953  0.0517
16339SOL     OW51010   7.949   3.294   1.920 -0.0492 -0.1263 -0.1319
16339SOL    HW151011   7.876   3.356   1.918 -1.4313 -1.6631  0.5989
16339SOL    HW251012   7.923   3.225   1.859  0.2545 -1.2535  0.9832
16340SOL     OW51013   0.234   0.962   8.347  0.3842  0.1523 -0.2165
16340SOL    HW151014   0.142   0.935   8.354  0.7001 -0.6568  1.4855
16340SOL    HW251015   0.236   1.051   8.382  0.1236  0.5370 -1.1450
16341SOL     OW51016   5.269   0.672   3.414  0.2093  0.5628  0.0170
16341SOL    HW151017   5.232   0.760   3.401  1.3416  1.3724  1.8891
16341SOL    HW251018   5.364   0.685   3.411  0.4266 -0.3048  1.7097
16342SOL     OW51019   4.061   0.720   4.484  0.3444  0.0137 -0.1264
16342SOL    HW151020   4.126   0.712   4.414 -0.1481 -0.2456 -0.5676
16342SOL    HW251021   4.044   0.629   4.510  2.1743  0.1802  1.9122
16343SOL     OW51022   2.859   1.860   1.407 -0.0025  0.8230  0.0328
16343SOL    HW151023   2.773   1.835   1.373  0.3957  0.2332 -0.5761
16343SOL    HW251024   2.900   1.777   1.431  1.2287  0.8527 -1.7260
16344SOL     OW51025   3.986   8.009   6.680  0.7315  0.3293 -0.3969
16344SOL    HW151026   4.077   7.978   6.684  0.7731  0.3991 -0.7828
16344SOL    HW251027   3.984   8.085   6.738  0.7658 -0.0534  0.1114
16345SOL     OW51028   0.556   7.280   5.202  0.1307  0.0857  0.4943
16345SOL    HW151029   0.487   7.238   5.151  0.4601 -0.0752  0.1788
16345SOL    HW251030   0.526   7.370   5.214 -1.3858 -0.6317  2.6135
16346SOL     OW51031   2.186   6.582   3.353 -0.3445  0.3453  0.0796
16346SOL    HW151032   2.176   6.619   3.265 -0.0767 -0.2815 -0.2177
16346SOL    HW251033   2.262   6.524   3.346 -0.0096  0.6743  0.8534
16347SOL     OW51034   3.450   6.704   8.441 -0.1156 -0.1967 -0.3990
16347SOL    HW151035   3.520   6.736   8.384  0.9520 -0.3736  0.7708
16347SOL    HW251036   3.483   6.622   8.477 -0.8675 -0.2237  0.2717
16348SOL     OW51037   3.299   2.131   6.012  0.4548 -0.2536  0.1812
16348SOL    HW151038   3.302   2.048   5.964  1.6000 -0.1083 -0.0089
16348SOL    HW251039   3.328   2.197   5.949 -0.5861  0.3377  0.2856
16349SOL     OW51040   8.395   3.689   4.438  0.3410  0.1190 -0.1061
16349SOL    HW151041   8.446   3.766   4.414 -0.2728  0.0056 -1.9013
16349SOL    HW251042   8.423   3.622   4.375 -2.6953  0.3501 -1.8791
16350SOL     OW51043   6.485   6.491   0.712 -0.1494  0.4736  0.1798
16350SOL    HW151044   6.396   6.488   0.678 -0.7734 -0.8409  1.8028
16350SOL    HW251045   6.528   6.415   0.673 -0.0204  0.5850  0.1066
16351SOL     OW51046   2.279   6.614   1.321  0.4377 -0.4255 -0.8512
16351SOL    HW151047   2.370   6.586   1.304  0.7696 -0.5570  0.9547
16351SOL    HW251048   2.230   6.532   1.324  1.2276 -0.9552  3.3642
16352SOL     OW51049   4.138   7.897   8.631  0.0583  0.0553 -0.2670
16352SOL    HW151050   4.193   7.971   8.605 -0.2049  0.1908 -0.4325
16352SOL    HW251051   4.120   7.850   8.550 -1.5223  0.9882 -0.4975
16353SOL     OW51052   7.122   2.105   5.197 -0.3625  0.2986 -0.2242
16353SOL    HW151053   7.138   2.028   5.252  0.6310 -0.6868 -1.8224
16353SOL    HW251054   7.088   2.070   5.115 -1.3210  1.7053 -0.4674
16354SOL     OW51055   4.572   6.039   7.236 -0.1682 -0.2286 -0.2283
16354SOL    HW151056   4.652   6.072   7.278 -1.0264  0.1954  1.1283
16354SOL    HW251057   4.602   6.002   7.153  1.0529  2.7794 -1.2679
16355SOL     OW51058   4.230   0.291   8.887  0.1343  0.3651 -0.8586
16355SOL    HW151059   4.243   0.226   8.818 -0.4790  0.5257 -1.1349
16355SOL    HW251060   4.309   0.344   8.886  0.8786 -0.6870 -0.2817
16356SOL     OW51061   1.599   5.677   3.844 -0.2937  0.0730  0.1200
16356SOL    HW151062   1.675   5.721   3.807 -0.2046 -0.7815 -0.7271
16356SOL    HW251063   1.562   5.627   3.772 -1.0592 -0.3498  0.7878
16357SOL     OW51064   2.185   6.459   5.716  0.2427  0.2171 -0.4744
16357SOL    HW151065   2.240   6.469   5.794 -0.7868 -1.7993  0.5939
16357SOL    HW251066   2.098   6.439   5.751 -0.4546  0.1660 -2.1519
16358SOL     OW51067   1.604   0.850   0.817  0.5623  0.2309 -0.4045
16358SOL    HW151068   1.613   0.912   0.744 -1.5372  2.8859  1.3919
16358SOL    HW251069   1.660   0.886   0.886 -0.2572 -0.1427  0.4886
16359SOL     OW51070   6.122   0.504   6.026 -0.0268  0.4875 -0.2550
16359SOL    HW151071   6.052   0.475   6.083  1.5166 -0.2028  1.3962
16359SOL    HW251072   6.154   0.423   5.985  0.5122  0.6279 -0.1231
16360SOL     OW51073   1.839   1.871   7.856  0.1451 -0.3952 -0.5618
16360SOL    HW151074   1.909   1.874   7.790 -1.1922  1.1343 -2.0160
16360SOL    HW251075   1.838   1.780   7.886  1.1794 -1.0281 -2.2758
16361SOL     OW51076   4.466   0.100   3.664  0.9713 -0.2331  0.1087
16361SOL    HW151077   4.487   0.193   3.669  4.3167 -0.8341 -0.0924
16361SOL    HW251078   4.518   0.060   3.735 -0.1735 -1.9918  0.0264
16362SOL     OW51079   6.557   0.617   4.799 -0.3042  0.5533  0.4858
16362SOL    HW151080   6.486   0.663   4.844 -0.6499  0.5234 -0.0206
16362SOL    HW251081   6.529   0.612   4.707  0.5849  0.9854  0.1795
16363SOL     OW51082   0.610   7.578   1.469 -0.4750 -0.1430 -0.1767
16363SOL    HW151083   0.584   7.651   1.525 -0.3249 -0.5411  0.4192
16363SOL    HW251084   0.705   7.590   1.457 -0.1314 -1.1386  1.2808
16364SOL     OW51085   6.710   1.507   6.347  0.4348 -0.5718  0.1089
16364SOL    HW151086   6.642   1.442   6.367  0.0972  0.0397  0.9686
16364SOL    HW251087   6.662   1.582   6.313 -0.0475  1.9140  5.3028
16365SOL     OW51088   1.107   0.400   1.220 -0.1443 -0.1422 -0.1449
16365SOL    HW151089   1.061   0.369   1.143  1.6987  1.2502 -1.9367
16365SOL    HW251090   1.084   0.493   1.226  0.4969 -0.0056  0.3776
16366SOL     OW51091   5.412   2.835   8.022 -0.4352  0.3089 -0.1138
16366SOL    HW151092   5.437   2.745   8.001 -0.5775 -0.2545  1.9216
16366SOL    HW251093   5.319   2.829   8.043 -0.1718  0.6741  1.2368
16367SOL     OW51094   2.792   8.014   1.622  0.2767  0.6354 -0.2686
16367SOL    HW151095   2.728   8.023   1.693  1.3179 -0.1936  0.8099
16367SOL    HW251096   2.840   8.096   1.622 -1.0126  1.4467 -1.3741
16368SOL     OW51097   3.347   8.496   0.617 -0.4426  0.1326 -0.4147
16368SOL    HW151098   3.259   8.466   0.638 -0.4852  0.9346  0.6849
16368SOL    HW251099   3.402   8.418   0.627 -1.4343 -1.4466 -5.0258
16369SOL     OW51100   1.079   7.450   1.469 -0.0488  0.3004  0.0259
16369SOL    HW151101   1.134   7.524   1.443  1.3286 -1.0880 -1.1841
16369SOL    HW251102   0.992   7.473   1.437  0.0963  1.8672  0.6437
16370SOL     OW51103   1.283   2.544   0.131  0.2473  0.5466 -0.1544
16370SOL    HW151104   1.200   2.498   0.143 -0.7971  2.8090  2.2642
16370SOL    HW251105   1.317   2.557   0.220  3.7426 -1.0475 -1.0739
16371SOL     OW51106   2.512   0.705   2.966  0.0932 -0.0103  0.0242
16371SOL    HW151107   2.529   0.633   3.026  1.8197 -1.1153 -1.7013
16371SOL    HW251108   2.457   0.667   2.898 -0.3411  0.7640 -0.0710
16372SOL     OW51109   4.963   8.420   2.307 -0.0163  0.2944 -0.4311
16372SOL    HW151110   4.901   8.353   2.278 -1.4159  1.1070  0.5659
16372SOL    HW251111   4.997   8.458   2.226 -1.4460  0.3782 -1.0191
16373SOL     OW51112   7.586   4.574   2.693 -0.5224  0.1628 -0.0805
16373SOL    HW151113   7.678   4.548   2.698  0.1417  1.6456 -2.6596
16373SOL    HW251114   7.541   4.513   2.751  2.0106 -0.9272  0.8994
16374SOL     OW51115   6.379   3.293   8.446  0.1037 -0.1608  0.0146
16374SOL    HW151116   6.292   3.332   8.449 -0.1064 -0.5678 -0.6131
16374SOL    HW251117   6.383   3.249   8.361  1.0616  0.1758 -0.1318
16375SOL     OW51118   1.605   0.133   0.842  0.2819  0.0924 -0.1672
16375SOL    HW151119   1.627   0.226   0.854  0.2717 -0.0761  1.3469
16375SOL    HW251120   1.527   0.120   0.896  1.5968 -1.2939  1.5193
16376SOL     OW51121   7.570   6.726   1.936  0.7336  0.2037 -0.0814
16376SOL    HW151122   7.584   6.636   1.909 -0.6707 -0.3222  0.8546
16376SOL    HW251123   7.585   6.778   1.856  0.5501 -0.9384 -0.8721
16377SOL     OW51124   3.491   1.871   6.148  0.0921  0.2036  0.2851
16377SOL    HW151125   3.499   1.901   6.058 -0.2503  0.4221  0.3233
16377SOL    HW251126   3.404   1.831   6.152  0.3742 -0.4090  0.3463
16378SOL     OW51127   7.150   0.290   1.506  0.2091 -0.1289 -0.4805
16378SOL    HW151128   7.118   0.253   1.424  0.5718 -1.7394  0.0761
16378SOL    HW251129   7.245   0.293   1.496  0.4476 -2.1983  0.5638
16379SOL     OW51130   2.385   6.600   5.248 -0.0488 -0.0750  0.4236
16379SOL    HW151131   2.405   6.584   5.340  1.8848  1.8251  0.4002
16379SOL    HW251132   2.302   6.648   5.250  0.1256  0.2081  1.2042
16380SOL     OW51133   1.164   8.698   6.949 -0.2398 -0.4194 -0.2907
16380SOL    HW151134   1.166   8.764   6.879 -1.0838 -0.8767 -0.7654
16380SOL    HW251135   1.110   8.627   6.913 -0.8969 -0.5608  0.9247
16381SOL     OW51136   2.628   4.485   2.430  0.0358 -0.3674  0.2541
16381SOL    HW151137   2.690   4.413   2.422 -0.1141 -0.5093  0.3730
16381SOL    HW251138   2.570   4.475   2.355  0.8519  0.4373 -0.5090
16382SOL     OW51139   6.389   6.561   8.544  0.3330  0.3915  0.0437
16382SOL    HW151140   6.426   6.604   8.467  1.3909  0.3671  0.5241
16382SOL    HW251141   6.310   6.612   8.564  0.6693  1.0972 -0.3841
16383SOL     OW51142   7.269   2.368   7.353  0.7041  0.2702 -0.3814
16383SOL    HW151143   7.362   2.360   7.375  1.2052  3.1118 -1.1705
16383SOL    HW251144   7.268   2.416   7.271 -1.4984  1.1612  0.1082
16384SOL     OW51145   6.303   5.259   8.807  0.2869  0.4194 -0.4314
16384SOL    HW151146   6.271   5.317   8.738 -0.9680  0.3111  0.0321
16384SOL    HW251147   6.237   5.190   8.813  0.2760  0.5187  0.9738
16385SOL     OW51148   7.225   1.663   0.095  0.3733 -0.4062 -0.1871
16385SOL    HW151149   7.143   1.702   0.066  1.1921  0.5584 -1.3133
16385SOL    HW251150   7.250   1.713   0.173  0.9871  0.8168 -1.1340
16386SOL     OW51151   3.215   2.094   4.970  0.2883  0.1629 -0.2583
16386SOL    HW151152   3.249   2.005   4.982 -2.9175 -0.9683  1.6854
16386SOL    HW251153   3.208   2.105   4.875  1.2942 -1.4020 -0.5526
16387SOL     OW51154   2.521   6.912   3.730 -0.0513 -0.1675  0.1494
16387SOL    HW151155   2.491   6.912   3.821  0.1430  1.3652  0.2374
16387SOL    HW251156   2.447   6.946   3.680  0.2207  0.0459 -0.1175
16388SOL     OW51157   6.558   3.782   4.278 -1.5132 -0.6040  0.0744
16388SOL    HW151158   6.601   3.816   4.357  0.5208 -1.5607 -0.5518
16388SOL    HW251159   6.505   3.855   4.246 -1.0173  0.3607  1.3755
16389SOL     OW51160   7.366   5.378   7.698  0.1788  0.5712  0.1917
16389SOL    HW151161   7.296   5.313   7.697  2.6340 -2.3414 -2.0708
16389SOL    HW251162   7.413   5.362   7.780 -0.8482  1.5825  1.0271
16390SOL     OW51163   2.584   4.189   4.161 -0.4780  0.0554  0.1678
16390SOL    HW151164   2.538   4.233   4.233 -0.0117  1.8916 -0.5993
16390SOL    HW251165   2.566   4.096   4.175 -1.6650  0.4702  1.7717
16391SOL     OW51166   1.365   7.003   7.593  0.1871 -0.1165 -0.2432
16391SOL    HW151167   1.416   7.078   7.624  0.5739 -0.3588 -0.2949
16391SOL    HW251168   1.284   7.007   7.643  0.1325  0.4365 -0.3611
16392SOL     OW51169   7.781   7.644   1.689  0.5458  0.0780  0.2329
16392SOL    HW151170   7.744   7.726   1.655 -1.2754 -1.1782 -0.9498
16392SOL    HW251171   7.873   7.648   1.664  0.3324  1.4389 -0.4310
16393SOL     OW51172   5.746   1.557   4.207 -0.2087 -0.2967  0.2463
16393SOL    HW151173   5.775   1.613   4.280 -0.6914 -0.3481  0.4819
16393SOL    HW251174   5.730   1.472   4.248 -0.0724 -0.4416 -0.0018
16394SOL     OW51175   0.487   5.070   0.431  0.2797  0.4586  0.9065
16394SOL    HW151176   0.440   5.151   0.408  1.0309  0.2949 -1.5559
16394SOL    HW251177   0.561   5.067   0.370  1.3445 -1.1750  2.1863
16395SOL     OW51178   4.643   5.464   6.728  0.1420 -0.6720  0.3018
16395SOL    HW151179   4.550   5.461   6.703 -0.1821 -1.0666  1.4896
16395SOL    HW251180   4.644   5.509   6.812  1.0965 -0.2575  0.0866
16396SOL     OW51181   7.965   5.692   2.618 -0.1361  0.9272  0.6209
16396SOL    HW151182   7.925   5.692   2.705  0.6062  1.4386  0.9785
16396SOL    HW251183   8.059   5.703   2.635  0.2315 -0.5880 -0.1623
16397SOL     OW51184   5.324   8.331   0.265  0.1568  0.1033 -0.0006
16397SOL    HW151185   5.228   8.328   0.261  0.0331  0.2103  2.0985
16397SOL    HW251186   5.351   8.318   0.174 -1.8369  0.0384 -0.6462
16398SOL     OW51187   1.018   1.462   4.694 -0.3279  0.5184 -0.2027
16398SOL    HW151188   0.983   1.386   4.647 -0.6336  1.1227 -0.9887
16398SOL    HW251189   1.084   1.427   4.752  0.6350 -0.1851 -1.6757
16399SOL     OW51190   6.953   3.092   5.573  0.0343 -0.4911  0.6105
16399SOL    HW151191   7.025   3.110   5.634  0.9484 -1.6796 -0.0584
16399SOL    HW251192   6.979   3.138   5.492 -0.7614  0.3869  0.8328
16400SOL     OW51193   3.451   6.005   1.035  0.1498  0.2432  0.0883
16400SOL    HW151194   3.475   6.097   1.037  0.2616  0.2052  1.5640
16400SOL    HW251195   3.522   5.960   1.081  0.8008 -0.7915 -1.7799
16401SOL     OW51196   6.781   0.371   4.244 -0.3832 -0.2639 -0.5967
16401SOL    HW151197   6.844   0.368   4.317 -1.5960 -0.2718  0.4876
16401SOL    HW251198   6.716   0.435   4.272 -0.3150  0.5297 -2.1704
16402SOL     OW51199   6.845   4.458   3.210 -0.0677  0.2687  0.4656
16402SOL    HW151200   6.802   4.541   3.231  0.0287  0.1575  1.1539
16402SOL    HW251201   6.927   4.483   3.168  0.0245  0.5295  0.7976
16403SOL     OW51202   7.942   5.179   0.589 -0.2083 -0.2221 -0.0709
16403SOL    HW151203   7.914   5.192   0.679 -2.2117 -0.9327 -0.5516
16403SOL    HW251204   8.008   5.110   0.594  0.3896  0.3862  0.9163
16404SOL     OW51205   5.882   1.940   0.441 -0.4391  0.6367 -0.1786
16404SOL    HW151206   5.977   1.950   0.442 -0.1189 -1.1482 -2.7295
16404SOL    HW251207   5.852   2.008   0.380 -0.8717  1.3237  0.7656
16405SOL     OW51208   0.889   7.791   0.621  0.5481  0.1641  0.2423
16405SOL    HW151209   0.936   7.824   0.697 -0.9029 -2.2267  2.3485
16405SOL    HW251210   0.810   7.845   0.616  0.8001  0.5333  0.2487
16406SOL     OW51211   2.056   4.720   1.869 -0.0338 -0.4922 -0.7677
16406SOL    HW151212   2.140   4.682   1.894  0.5517  0.3757 -1.3695
16406SOL    HW251213   2.021   4.660   1.803  1.1858  0.3178 -2.1934
16407SOL     OW51214   7.413   1.266   8.576  0.5697  0.2953 -0.0230
16407SOL    HW151215   7.386   1.175   8.581  2.0054 -0.2101 -0.7293
16407SOL    HW251216   7.344   1.310   8.527 -0.0680 -0.4265  0.2154
16408SOL     OW51217   0.612   2.218   3.297  0.1053  0.3491  0.1724
16408SOL    HW151218   0.628   2.289   3.234 -0.4467  0.0185 -0.3577
16408SOL    HW251219   0.566   2.151   3.246  1.7573 -0.9741  0.3272
16409SOL     OW51220   4.452   0.977   1.281  0.2233  0.0510  0.5716
16409SOL    HW151221   4.411   0.949   1.363 -0.4402 -3.6498 -0.8355
16409SOL    HW251222   4.497   0.899   1.249  0.4448  1.3382 -2.5978
16410SOL     OW51223   5.641   2.626   6.016  0.2761  0.0554  0.0702
16410SOL    HW151224   5.725   2.671   6.028  0.0283  1.0662 -1.6421
16410SOL    HW251225   5.657   2.538   6.049  0.8363  1.2502  3.3433
16411SOL     OW51226   3.990   1.433   8.483 -0.0891 -0.2051  0.4120
16411SOL    HW151227   4.053   1.504   8.485  0.2224 -0.4958  1.4194
16411SOL    HW251228   4.040   1.355   8.507 -0.4245 -0.7716 -0.6730
16412SOL     OW51229   3.742   2.005   2.736 -0.1202 -0.2274 -0.0665
16412SOL    HW151230   3.700   2.076   2.785  0.2215  0.7177 -1.1015
16412SOL    HW251231   3.788   1.954   2.802  0.6060  1.2086  0.5954
16413SOL     OW51232   3.874   2.917   4.772 -0.1012 -0.1496  0.3002
16413SOL    HW151233   3.821   2.844   4.738 -0.4029  0.9405 -1.7644
16413SOL    HW251234   3.948   2.922   4.712  0.1549  0.9343  0.6970
16414SOL     OW51235   6.189   3.947   2.424 -0.3479 -0.0631  0.0601
16414SOL    HW151236   6.176   3.852   2.426 -1.9170  0.1251  0.5274
16414SOL    HW251237   6.154   3.977   2.508  0.0964  0.9348 -0.1049
16415SOL     OW51238   1.692   2.796   6.412  0.1053  0.3628  0.0887
16415SOL    HW151239   1.721   2.739   6.341 -0.0217  0.7394 -0.2728
16415SOL    HW251240   1.610   2.758   6.441  0.2199  0.1352  0.1194
16416SOL     OW51241   3.547   0.777   4.766 -0.0387 -0.4037 -0.3930
16416SOL    HW151242   3.551   0.709   4.833  1.0886 -1.6928 -1.7131
16416SOL    HW251243   3.457   0.774   4.734  0.1550 -1.7336 -0.8699
16417SOL     OW51244   2.909   1.631   6.909  0.2557 -0.1330  0.4193
16417SOL    HW151245   2.847   1.600   6.842 -1.0861  0.7065  1.2183
16417SOL    HW251246   2.874   1.596   6.991  1.0001  0.1518  0.8615
16418SOL     OW51247   8.532   6.363   6.227 -0.0658  0.0621  0.0597
16418SOL    HW151248   8.551   6.274   6.258  0.8333 -0.2116 -1.1893
16418SOL    HW251249   8.597   6.379   6.158 -0.4847  1.5315 -0.0315
16419SOL     OW51250   3.359   7.129   5.934 -0.3629 -0.4275 -0.1400
16419SOL    HW151251   3.358   7.054   5.875 -0.3645 -0.4401 -0.1240
16419SOL    HW251252   3.279   7.177   5.913 -1.7936 -1.8621  1.6739
16420SOL     OW51253   1.770   7.340   2.397  0.0812 -0.5145 -0.3103
16420SOL    HW151254   1.690   7.327   2.447 -1.1704  0.2363 -2.0400
16420SOL    HW251255   1.780   7.435   2.390  1.0403 -0.5978 -0.2704
16421SOL     OW51256   2.901   2.850   5.795 -0.0563  0.1144 -0.0195
16421SOL    HW151257   2.943   2.766   5.814  1.3791  0.2211 -2.3248
16421SOL    HW251258   2.882   2.888   5.881 -1.0472 -2.6586  1.0895
16422SOL     OW51259   5.275   6.890   8.766  0.5509  0.4608 -0.1998
16422SOL    HW151260   5.347   6.950   8.784  0.0087  0.9414  0.3814
16422SOL    HW251261   5.210   6.943   8.720  0.3232  0.1722 -0.2122
16423SOL     OW51262   0.579   1.212   3.650 -0.2103 -0.7570 -0.0487
16423SOL    HW151263   0.539   1.292   3.616 -0.0642 -1.5573 -2.2973
16423SOL    HW251264   0.672   1.220   3.628  0.3751 -0.3011  2.3425
16424SOL     OW51265   6.598   2.593   3.844  0.5188  0.4507  0.0112
16424SOL    HW151266   6.585   2.610   3.938 -0.0066  2.5765 -0.4054
16424SOL    HW251267   6.567   2.672   3.801  0.2328 -0.7181 -2.0181
16425SOL     OW51268   6.565   1.082   6.209 -0.5269 -0.1585  0.4781
16425SOL    HW151269   6.554   1.151   6.275 -1.4172  0.4376 -0.2663
16425SOL    HW251270   6.500   1.103   6.142  1.0761 -0.1170 -1.1422
16426SOL     OW51271   2.356   0.083   2.211  0.2813 -0.3337  0.1659
16426SOL    HW151272   2.361   0.046   2.299 -0.7493 -0.7208  0.0722
16426SOL    HW251273   2.355   0.178   2.224 -3.5242 -0.3154  0.8665
16427SOL     OW51274   1.418   4.503   7.215 -0.2493  0.4207 -0.2692
16427SOL    HW151275   1.393   4.577   7.159  0.7040  3.0223  2.4716
16427SOL    HW251276   1.334   4.465   7.241 -0.8534  1.3558 -0.7510
16428SOL     OW51277   0.579   8.272   1.123  0.2410  0.1742 -0.5643
16428SOL    HW151278   0.543   8.193   1.084 -0.0542  0.4671 -0.8969
16428SOL    HW251279   0.642   8.241   1.188  0.5934 -0.3170 -1.1402
16429SOL     OW51280   5.418   6.267   4.570  0.3268  0.3293  0.5068
16429SOL    HW151281   5.502   6.313   4.571 -0.8701  2.6764  1.2231
16429SOL    HW251282   5.402   6.248   4.478  0.9248  1.2982  0.1871
16430SOL     OW51283   5.406   3.759   8.480  0.3003  0.2228  0.3439
16430SOL    HW151284   5.402   3.797   8.392  1.4055  0.4618  0.3877
16430SOL    HW251285   5.464   3.683   8.471  1.9167  1.2970  1.2174
16431SOL     OW51286   2.040   0.163   7.215 -0.6022 -0.2083  0.4336
16431SOL    HW151287   2.046   0.222   7.290  1.2883 -1.4601  1.3323
16431SOL    HW251288   2.129   0.130   7.202 -0.7081  0.3892 -2.7757
16432SOL     OW51289   8.364   6.371   4.424  0.4949 -0.4445  0.1267
16432SOL    HW151290   8.332   6.369   4.334  1.7922  0.1279 -0.3738
16432SOL    HW251291   8.285   6.376   4.478 -0.3166 -1.3042 -0.9509
16433SOL     OW51292   2.013   8.332   7.415 -0.1990  0.0602 -0.2192
16433SOL    HW151293   1.926   8.323   7.456  0.0141  1.3897  0.5946
16433SOL    HW251294   2.030   8.426   7.416  1.5470 -0.2198  0.2680
16434SOL     OW51295   6.825   8.813   4.659 -0.5012 -0.1632  0.1122
16434SOL    HW151296   6.810   8.742   4.596 -0.1082  0.5368 -0.7903
16434SOL    HW251297   6.915   8.800   4.690 -0.0140  0.5771 -0.9193
16435SOL     OW51298   0.715   5.320   4.894  0.3948  0.5758 -0.6379
16435SOL    HW151299   0.712   5.360   4.808  1.1951  0.9887 -0.4754
16435SOL    HW251300   0.807   5.320   4.919  0.0369  1.8513  0.8681
16436SOL     OW51301   6.153   4.512   5.196 -0.4214 -0.2514  0.4729
16436SOL    HW151302   6.081   4.562   5.157 -0.3320  1.0896  1.9139
16436SOL    HW251303   6.214   4.497   5.124 -0.3982  1.8902 -0.0193
16437SOL     OW51304   7.234   3.834   4.293 -0.0364 -0.4318 -0.4567
16437SOL    HW151305   7.144   3.818   4.323  0.1189  3.4523  2.8393
16437SOL    HW251306   7.289   3.807   4.366  1.2722 -0.1532 -1.3222
16438SOL     OW51307   5.252   5.548   3.834  0.4769  0.2948 -0.4406
16438SOL    HW151308   5.227   5.640   3.834  1.5355  0.6225 -1.6329
16438SOL    HW251309   5.284   5.533   3.745  0.3769 -1.2115 -0.2403
16439SOL     OW51310   0.643   0.888   2.716  0.1645 -0.3081 -0.2355
16439SOL    HW151311   0.566   0.929   2.755  0.2094 -0.7711  0.3576
16439SOL    HW251312   0.715   0.913   2.775  0.3740 -0.3314 -0.4822
16440SOL     OW51313   4.387   1.220   4.789  0.0590  0.0443 -0.0693
16440SOL    HW151314   4.386   1.316   4.786 -1.0369  0.0694  0.4051
16440SOL    HW251315   4.338   1.193   4.712  0.3582 -0.1379 -0.1973
16441SOL     OW51316   2.563   4.141   8.829  0.1336  0.0598 -0.3541
16441SOL    HW151317   2.550   4.158   8.736  0.1417  0.7587 -0.2350
16441SOL    HW251318   2.643   4.089   8.832  0.9027  1.1744 -0.6652
16442SOL     OW51319   1.025   5.770   0.289 -0.0928 -0.7401  0.0956
16442SOL    HW151320   1.078   5.844   0.258 -0.6023 -0.3587  0.1141
16442SOL    HW251321   0.959   5.811   0.345 -1.0149 -1.0820 -0.7108
16443SOL     OW51322   0.343   2.244   5.347 -0.4496  0.7844 -0.7635
16443SOL    HW151323   0.305   2.308   5.287 -3.6277  0.4609  0.6729
16443SOL    HW251324   0.317   2.159   5.311  0.8715  0.4119 -0.8879
16444SOL     OW51325   1.191   3.344   3.628  0.4744  0.2341  0.1361
16444SOL    HW151326   1.107   3.323   3.668 -1.0228  0.2173 -2.7851
16444SOL    HW251327   1.170   3.398   3.552  3.3794  2.9084  0.9718
16445SOL     OW51328   0.595   4.726   0.954  0.0276  0.6591 -0.3416
16445SOL    HW151329   0.639   4.807   0.981  1.4235  0.3241 -1.4729
16445SOL    HW251330   0.634   4.705   0.869  0.3062 -1.6418  0.2876
16446SOL     OW51331   1.981   6.423   3.493  0.1975 -0.7303 -0.3690
16446SOL    HW151332   1.917   6.448   3.426  0.4418  1.0927  0.0357
16446SOL    HW251333   2.066   6.437   3.452  0.4552 -3.6432 -1.0922
16447SOL     OW51334   0.466   4.949   3.241  0.4347  0.5527  0.6949
16447SOL    HW151335   0.399   4.999   3.195 -0.7059 -3.2118 -2.2201
16447SOL    HW251336   0.546   5.002   3.231 -0.7980  2.1833 -1.4552
16448SOL     OW51337   7.245   3.656   1.896 -0.1057  0.2661 -0.1201
16448SOL    HW151338   7.196   3.641   1.816 -0.5480  0.2489  0.1541
16448SOL    HW251339   7.202   3.730   1.938  1.2886  1.5389 -0.8326
16449SOL     OW51340   2.844   6.738   0.854 -0.0329 -0.4293 -0.1344
16449SOL    HW151341   2.908   6.702   0.793 -1.0841 -1.0601 -0.8990
16449SOL    HW251342   2.835   6.830   0.830  1.4455 -0.0177  0.7581
16450SOL     OW51343   8.316   5.854   0.615  0.0537 -0.5315  0.2460
16450SOL    HW151344   8.317   5.801   0.695  2.4744 -0.9565  0.0204
16450SOL    HW251345   8.395   5.827   0.567 -1.1417 -0.0502 -2.1444
16451SOL     OW51346   0.005   2.184   2.702  0.1405 -0.2916 -0.2068
16451SOL    HW151347  -0.088   2.187   2.678  0.2282 -1.1556 -0.7140
16451SOL    HW251348   0.046   2.249   2.644 -0.2123  0.5174  0.4219
16452SOL     OW51349   6.069   0.797   1.598  0.4535 -0.2600 -1.0424
16452SOL    HW151350   6.127   0.830   1.529  3.4010 -2.6017  0.0471
16452SOL    HW251351   6.003   0.746   1.551  0.2177  1.1462 -2.2856
16453SOL     OW51352   0.478   6.437   7.117 -0.0709  0.1857  0.0633
16453SOL    HW151353   0.467   6.502   7.186 -1.7105  1.6025 -1.4516
16453SOL    HW251354   0.395   6.388   7.117  1.0629 -1.8915  1.0738
16454SOL     OW51355   6.622   6.842   8.478  0.4401  0.0562 -0.0456
16454SOL    HW151356   6.613   6.840   8.573  0.7974  2.3111  0.0864
16454SOL    HW251357   6.537   6.815   8.445  0.2178 -0.4520  0.9094
16455SOL     OW51358   0.163   5.617   3.398 -0.4677  0.0575  0.3467
16455SOL    HW151359   0.068   5.615   3.385 -0.3916 -3.4453 -0.6807
16455SOL    HW251360   0.174   5.622   3.493 -1.5528  2.3234  0.4284
16456SOL     OW51361   4.088   2.406   5.289 -0.6509  0.1088  0.0211
16456SOL    HW151362   4.161   2.386   5.347 -0.1663 -1.0892 -0.9593
16456SOL    HW251363   4.095   2.342   5.218 -3.4062 -0.9388  0.5477
16457SOL     OW51364   5.506   6.183   8.866  0.0578 -0.0419  0.3410
16457SOL    HW151365   5.460   6.224   8.940 -1.3498  0.2675 -0.6776
16457SOL    HW251366   5.514   6.253   8.802  0.6778 -0.4931 -0.0848
16458SOL     OW51367   7.265   4.935   7.262  0.2151  0.5163  0.3085
16458SOL    HW151368   7.198   4.914   7.327  0.6310  0.4430  0.7203
16458SOL    HW251369   7.346   4.946   7.313  0.6738 -0.1532 -0.2541
16459SOL     OW51370   2.005   8.302   8.294 -0.2544 -0.1933 -0.2120
16459SOL    HW151371   2.083   8.288   8.348  0.9262 -0.1982 -1.8439
16459SOL    HW251372   1.998   8.397   8.285 -1.9450 -0.0393  1.9660
16460SOL     OW51373   7.058   0.286   3.632 -0.4341 -0.2214  0.5444
16460SOL    HW151374   7.142   0.242   3.642 -0.8090 -1.6062 -1.7799
16460SOL    HW251375   7.080   0.371   3.593 -0.1143 -0.6542 -0.2275
16461SOL     OW51376   5.992   2.297   0.393 -0.7476 -0.4178  0.4399
16461SOL    HW151377   6.044   2.371   0.362 -2.9801  0.9646 -0.1985
16461SOL    HW251378   6.040   2.264   0.469  0.6450  1.2567  0.3390
16462SOL     OW51379   1.264   3.121   6.200 -0.5378 -0.3805 -0.0641
16462SOL    HW151380   1.324   3.046   6.201 -1.4440 -1.2290 -2.6726
16462SOL    HW251381   1.282   3.164   6.117 -1.4571  1.1567  0.5007
16463SOL     OW51382   1.117   7.182   2.438 -0.9541  0.2535 -0.4677
16463SOL    HW151383   1.045   7.241   2.418  0.3546  2.1193  0.0744
16463SOL    HW251384   1.105   7.160   2.531 -1.4298 -0.3659 -0.6648
16464SOL     OW51385   8.735   3.783   4.491  0.4161 -0.0517  0.0480
16464SOL    HW151386   8.726   3.795   4.396  1.1417 -1.7879 -0.2673
16464SOL    HW251387   8.691   3.860   4.529 -0.4968  0.3183 -1.6654
16465SOL     OW51388   1.070   5.496   0.371  0.8196 -0.0503 -0.1545
16465SOL    HW151389   1.016   5.455   0.439 -0.2088  1.9734  0.3343
16465SOL    HW251390   1.008   5.543   0.316  1.8572  0.1237 -1.2290
16466SOL     OW51391   8.387   8.152   6.856  0.6376  0.5182 -0.0060
16466SOL    HW151392   8.395   8.247   6.864 -2.1293  0.8248  0.1273
16466SOL    HW251393   8.372   8.122   6.946  0.8167  0.0320 -0.1370
16467SOL     OW51394   5.959   0.265   8.646 -0.5524  0.2233 -0.5142
16467SOL    HW151395   5.922   0.352   8.628 -1.7406 -0.3405 -0.9267
16467SOL    HW251396   6.000   0.274   8.732 -2.0410  0.7912  0.1733
16468SOL     OW51397   2.055   6.266   3.251  0.2410 -0.1463  0.0058
16468SOL    HW151398   2.022   6.231   3.334 -0.8097  1.4874  0.3202
16468SOL    HW251399   2.044   6.194   3.189 -2.9042 -0.1094  0.3683
16469SOL     OW51400   5.199   4.913   2.794 -0.1284  0.1244  0.9941
16469SOL    HW151401   5.262   4.955   2.853  0.7829 -1.8062  1.4778
16469SOL    HW251402   5.126   4.975   2.789  1.0839  1.6805  1.7414
16470SOL     OW51403   8.189   6.303   0.117 -0.5898  0.2229 -0.4236
16470SOL    HW151404   8.236   6.354   0.051 -0.9753  0.7263 -0.3179
16470SOL    HW251405   8.250   6.296   0.191  0.5439 -1.8650 -1.4619
16471SOL     OW51406   5.032   7.010   1.896 -0.2165 -0.6152  0.1764
16471SOL    HW151407   5.106   6.967   1.939 -0.1826  0.4976  1.2770
16471SOL    HW251408   5.058   7.014   1.804  0.1175 -2.2027  0.1674
16472SOL     OW51409   5.052   0.039   4.569 -0.6630  0.0056  0.3246
16472SOL    HW151410   5.008  -0.010   4.499 -0.5418 -2.0557  1.6042
16472SOL    HW251411   5.078   0.121   4.528  0.2285 -1.4840 -2.3155
16473SOL     OW51412   3.273   0.273   6.153 -0.2261  0.5061 -0.2379
16473SOL    HW151413   3.290   0.328   6.230  0.2009  0.3932 -0.2504
16473SOL    HW251414   3.178   0.276   6.142 -0.3199  0.2840  0.4703
16474SOL     OW51415   1.357   4.991   0.059 -0.4149  0.2933  0.1610
16474SOL    HW151416   1.375   5.084   0.070  1.7284  0.1176 -1.2289
16474SOL    HW251417   1.364   4.976  -0.035 -1.7380 -1.1027  0.2482
16475SOL     OW51418   4.468   7.085   3.916 -0.6549 -0.3372 -0.1540
16475SOL    HW151419   4.499   7.066   3.827 -0.6320 -2.7640  0.3081
16475SOL    HW251420   4.541   7.130   3.958 -0.2177 -0.2362 -1.0020
16476SOL     OW51421   7.218   5.661   4.244 -0.3089 -0.7144 -0.0421
16476SOL    HW151422   7.157   5.612   4.188 -2.1420  0.3833  0.8986
16476SOL    HW251423   7.169   5.677   4.324  2.2031 -2.1332  1.9093
16477SOL     OW51424   7.276   7.090   0.454 -0.3690  0.3474 -0.2365
16477SOL    HW151425   7.245   7.143   0.380 -0.2179  0.5863 -0.1293
16477SOL    HW251426   7.371   7.101   0.454 -0.0959 -1.6012 -1.4945
16478SOL     OW51427   3.796   5.285   4.106 -0.1901 -0.2831  0.4022
16478SOL    HW151428   3.794   5.378   4.081  2.2903 -0.1167  0.5107
16478SOL    HW251429   3.842   5.284   4.190  2.5776 -1.7678 -0.9990
16479SOL     OW51430   4.185   2.534   0.985 -0.0170  0.4009  0.2655
16479SOL    HW151431   4.208   2.614   0.938  1.2296 -1.1877 -2.0181
16479SOL    HW251432   4.269   2.496   1.010 -0.5755 -0.3255  1.1167
16480SOL     OW51433   8.752   5.183   7.865 -0.2585 -0.4219 -0.3295
16480SOL    HW151434   8.836   5.140   7.882 -0.2115 -0.0437  0.4716
16480SOL    HW251435   8.756   5.265   7.916 -0.5678  0.2640 -1.3716
16481SOL     OW51436   3.023   0.790   3.283 -0.6459  0.2638 -0.3299
16481SOL    HW151437   3.063   0.847   3.217 -0.3428  2.1821  1.4084
16481SOL    HW251438   2.939   0.766   3.246 -0.3573  1.0276 -1.5462
16482SOL     OW51439   2.646   6.288   3.955  0.1708  0.3886  0.1466
16482SOL    HW151440   2.714   6.231   3.919 -1.1114 -2.0419  1.2903
16482SOL    HW251441   2.591   6.309   3.880  0.4647 -0.1946 -0.2436
16483SOL     OW51442   7.914   8.277   2.186 -0.1014  0.0849  0.2424
16483SOL    HW151443   7.885   8.309   2.272  0.0855 -1.5792  0.9675
16483SOL    HW251444   8.009   8.280   2.190 -0.0739  2.0803 -0.7733
16484SOL     OW51445   7.415   6.663   7.716 -0.2567  0.7936 -0.5024
16484SOL    HW151446   7.431   6.753   7.687  1.9027  0.2019 -1.3384
16484SOL    HW251447   7.493   6.615   7.688 -0.0653 -0.7866  2.4063
16485SOL     OW51448   2.917   5.591   4.212  0.2473  0.2374 -0.2361
16485SOL    HW151449   2.959   5.644   4.144  0.7278  0.8874  0.5419
16485SOL    HW251450   2.929   5.642   4.292 -0.3115 -0.5118  0.3358
16486SOL     OW51451   6.155   7.038   0.546 -0.0049  0.1207  0.0400
16486SOL    HW151452   6.094   6.981   0.500 -0.5215 -0.7907  1.7591
16486SOL    HW251453   6.179   6.989   0.625  1.3816  1.3109  0.4055
16487SOL     OW51454   8.251   4.497   0.720  0.3897  0.3183  0.0596
16487SOL    HW151455   8.200   4.543   0.653  0.1835  0.3814  0.2587
16487SOL    HW251456   8.332   4.471   0.675  0.4140  0.6871 -0.1113
16488SOL     OW51457   1.580   0.311   5.143  0.1523  0.3246 -0.4782
16488SOL    HW151458   1.548   0.240   5.088 -0.3202  0.7235 -0.7252
16488SOL    HW251459   1.612   0.268   5.222  0.3685 -0.2071 -0.8532
16489SOL     OW51460   6.173   0.952   7.591 -0.3997 -0.0809 -0.3886
16489SOL    HW151461   6.187   0.966   7.498  0.1704  0.5488 -0.2190
16489SOL    HW251462   6.253   0.907   7.621 -0.7023 -0.5420 -0.2537
16490SOL     OW51463   2.559   0.889   7.872  0.1806  0.5334  0.0153
16490SOL    HW151464   2.518   0.900   7.786  0.3857 -1.5922 -0.4133
16490SOL    HW251465   2.628   0.825   7.858 -0.6083 -0.8630  2.0058
16491SOL     OW51466   6.948   2.761   7.916 -0.9607  0.3150  0.3324
16491SOL    HW151467   7.041   2.745   7.929 -0.5983  1.5894 -0.5619
16491SOL    HW251468   6.927   2.714   7.835 -0.7632  1.1334 -0.2098
16492SOL     OW51469   6.754   8.427   5.824 -0.4863  0.3056 -0.0099
16492SOL    HW151470   6.753   8.455   5.733 -0.6775  0.9176  0.1732
16492SOL    HW251471   6.762   8.331   5.820  2.2346  0.4809 -0.6138
16493SOL     OW51472   3.764   7.935   7.316 -0.3593 -0.0155 -0.3734
16493SOL    HW151473   3.697   8.002   7.301  0.1430  0.7211  0.5343
16493SOL    HW251474   3.760   7.918   7.410 -1.3984 -2.2769 -0.7747
16494SOL     OW51475   7.716   0.920   5.167  0.0695  0.4324 -0.0830
16494SOL    HW151476   7.798   0.888   5.206  1.2969  1.5922 -1.6214
16494SOL    HW251477   7.681   0.844   5.121 -0.6307 -0.5399  1.9157
16495SOL     OW51478   4.196   6.496   8.429 -0.2537 -0.4130  0.5524
16495SOL    HW151479   4.109   6.465   8.452 -1.0636  1.4900  0.2323
16495SOL    HW251480   4.184   6.545   8.348  1.6429 -2.5437 -1.1502
16496SOL     OW51481   7.588   5.166   0.092  0.0461 -0.4169 -0.7191
16496SOL    HW151482   7.565   5.139   0.003 -0.8333 -1.8620 -0.0845
16496SOL    HW251483   7.506   5.161   0.140  0.4704  0.5667  0.1423
16497SOL     OW51484   3.957   5.958   3.614  0.5594 -0.0338 -0.1518
16497SOL    HW151485   3.904   5.956   3.693 -1.3745 -1.0019 -1.4089
16497SOL    HW251486   3.994   5.869   3.608 -1.1490 -0.6989 -1.4779
16498SOL     OW51487   0.767   2.481   4.021 -1.0270  0.2043  0.2649
16498SOL    HW151488   0.785   2.575   4.021  0.1086  0.0200 -1.5228
16498SOL    HW251489   0.714   2.467   3.943  0.0276 -0.8414 -0.2822
16499SOL     OW51490   3.193   5.209   8.443 -0.2819  0.2803  0.4603
16499SOL    HW151491   3.200   5.182   8.534 -0.4875 -0.9060  0.1381
16499SOL    HW251492   3.166   5.130   8.396  1.1721  0.5156 -0.8437
16500SOL     OW51493   0.858   7.462   1.257 -0.6516  0.1995 -0.5479
16500SOL    HW151494   0.777   7.460   1.206 -0.5672  0.8987 -0.7183
16500SOL    HW251495   0.928   7.451   1.192 -0.5481  1.0217 -0.5959
16501SOL     OW51496   0.232   1.433   6.883  0.1989 -0.4029 -0.3996
16501SOL    HW151497   0.320   1.428   6.921  0.5073  1.2142 -0.8204
16501SOL    HW251498   0.173   1.435   6.958  0.8213  3.3374  0.2089
16502SOL     OW51499   3.135   7.539   6.421  0.1412 -0.3218 -0.0668
16502SOL    HW151500   3.180   7.624   6.415  0.0881 -0.3596 -1.2032
16502SOL    HW251501   3.154   7.497   6.337 -3.5104  0.4169 -1.4213
16503SOL     OW51502   5.251   1.354   1.836  0.5432  0.8105  0.5240
16503SOL    HW151503   5.209   1.415   1.896  1.4086  0.7156  1.2446
16503SOL    HW251504   5.242   1.269   1.878 -0.8496  0.3747 -0.5773
16504SOL     OW51505   7.005   7.962   3.238  0.2605  0.5467 -0.3131
16504SOL    HW151506   7.013   7.934   3.147  0.4735  0.1001 -0.1609
16504SOL    HW251507   7.095   7.982   3.265  0.2553  0.2436 -0.0663
16505SOL     OW51508   2.742   0.833   2.483  0.4873  0.7568  0.0290
16505SOL    HW151509   2.746   0.756   2.426  1.9472 -0.3768  1.5648
16505SOL    HW251510   2.675   0.811   2.548 -0.1767  1.4518 -0.4045
16506SOL     OW51511   3.280   1.453   3.119  0.3109 -0.8411 -0.1730
16506SOL    HW151512   3.322   1.457   3.204  0.2078  0.0331 -0.1468
16506SOL    HW251513   3.259   1.545   3.098 -0.7193 -1.1552 -0.6075
16507SOL     OW51514   6.423   3.486   6.284 -0.2202 -0.6246 -0.6154
16507SOL    HW151515   6.500   3.448   6.326 -1.6546 -0.8880  1.9939
16507SOL    HW251516   6.377   3.411   6.246 -1.3176 -1.1620  1.5988
16508SOL     OW51517   0.294   5.049   8.393  0.3253 -0.2566  0.0137
16508SOL    HW151518   0.379   5.016   8.423  1.1500  1.9764  0.3198
16508SOL    HW251519   0.255   5.088   8.471 -0.1408  0.4153 -0.5494
16509SOL     OW51520   2.260   2.303   8.879  0.5071  0.1090 -0.1438
16509SOL    HW151521   2.188   2.242   8.863  0.1042  0.2533  1.0669
16509SOL    HW251522   2.259   2.361   8.803  1.0523 -1.5097 -1.4511
16510SOL     OW51523   7.032   4.850   6.745 -0.1292  0.3907  0.3030
16510SOL    HW151524   6.992   4.849   6.832 -1.2265  0.5071 -0.1890
16510SOL    HW251525   6.960   4.870   6.685  0.5647  0.0789 -0.6619
16511SOL     OW51526   8.564   5.518   0.778  0.0867  0.8042 -0.6715
16511SOL    HW151527   8.649   5.562   0.776 -0.7214  2.4124 -2.3198
16511SOL    HW251528   8.502   5.585   0.805 -0.6438 -0.5220  1.1806
16512SOL     OW51529   7.417   2.839   7.670 -0.1216 -0.3880 -0.7254
16512SOL    HW151530   7.351   2.870   7.731  1.0602 -0.8681  0.8980
16512SOL    HW251531   7.469   2.916   7.648 -0.8845 -0.1091 -1.5958
16513SOL     OW51532   6.084   7.386   7.903  0.0484 -0.6849  0.0167
16513SOL    HW151533   6.170   7.353   7.930 -0.0694  0.1469  1.5228
16513SOL    HW251534   6.078   7.473   7.943 -1.0667 -0.2795 -0.9594
16514SOL     OW51535   1.705   1.003   3.813 -0.2738  0.3305 -0.4395
16514SOL    HW151536   1.649   1.047   3.877 -0.5761  0.7333 -0.9789
16514SOL    HW251537   1.670   1.029   3.728 -0.4575 -0.9406 -0.7748
16515SOL     OW51538   8.590   3.806   1.982  0.1771 -0.0312 -0.0294
16515SOL    HW151539   8.597   3.721   2.026  0.3200 -0.0959 -0.1790
16515SOL    HW251540   8.666   3.855   2.013  0.2874 -0.0825 -0.2195
16516SOL     OW51541   7.395   8.259   5.110  0.3795 -0.9403 -0.0979
16516SOL    HW151542   7.409   8.354   5.112  1.3656 -0.9135 -3.0999
16516SOL    HW251543   7.467   8.223   5.161 -0.2820 -0.1281  1.5035
16517SOL     OW51544   2.341   7.058   3.535 -0.3802 -0.2460 -0.6197
16517SOL    HW151545   2.295   6.976   3.516 -1.9815  0.6833 -1.0009
16517SOL    HW251546   2.323   7.113   3.459  0.7030  0.4513 -0.3835
16518SOL     OW51547   4.599   0.878   8.817 -0.0003  0.3232 -0.6717
16518SOL    HW151548   4.553   0.812   8.868 -2.4049 -0.3215 -3.4077
16518SOL    HW251549   4.683   0.836   8.795 -0.1263 -0.4924  0.3091
16519SOL     OW51550   2.541   6.521   1.272 -0.0416 -0.0606 -0.2665
16519SOL    HW151551   2.610   6.574   1.311 -0.9583  0.5597  0.5475
16519SOL    HW251552   2.587   6.459   1.215  1.2151 -0.0634  0.7320
16520SOL     OW51553   5.659   7.281   7.112  0.0735 -0.2984 -0.4577
16520SOL    HW151554   5.664   7.186   7.103 -0.9157 -0.4058 -0.0333
16520SOL    HW251555   5.693   7.299   7.199 -2.4398 -0.5858  0.6548
16521SOL     OW51556   8.818   4.343   4.770  0.1276  0.3576  0.1070
16521SOL    HW151557   8.896   4.388   4.738  0.5534 -0.6989 -0.3631
16521SOL    HW251558   8.790   4.395   4.846  0.7777  1.2339 -0.2410
16522SOL     OW51559   4.807   3.830   6.330  0.3815 -0.1101 -0.6774
16522SOL    HW151560   4.842   3.856   6.415  0.4005 -0.7096 -0.5001
16522SOL    HW251561   4.720   3.795   6.349  0.2164  0.1407 -0.9558
16523SOL     OW51562   4.594   7.168   2.212 -0.1133  0.6712  0.0052
16523SOL    HW151563   4.688   7.161   2.228  0.6189  3.9857 -1.9759
16523SOL    HW251564   4.565   7.237   2.271  0.0282  3.7768 -3.2286
16524SOL     OW51565   4.060   7.500   3.079 -0.8523  0.0244 -0.3374
16524SOL    HW151566   4.118   7.489   3.155 -1.1545  1.3885  0.1080
16524SOL    HW251567   4.119   7.518   3.006 -0.6936  2.1884  0.2575
16525SOL     OW51568   4.302   7.337   0.851  0.3398 -1.3386  0.3205
16525SOL    HW151569   4.340   7.315   0.936 -0.5649 -1.9310  0.5870
16525SOL    HW251570   4.358   7.293   0.788  0.0127 -2.3634  0.7162
16526SOL     OW51571   0.500   0.198   0.840 -0.2997  0.2769 -0.0079
16526SOL    HW151572   0.577   0.167   0.889 -0.3542  0.6232  0.3019
16526SOL    HW251573   0.516   0.291   0.826  0.2505 -0.0344 -1.6654
16527SOL     OW51574   0.868   3.331   4.372 -0.1376  0.6079  0.0856
16527SOL    HW151575   0.846   3.358   4.282 -0.4199  0.1432  0.0105
16527SOL    HW251576   0.785   3.298   4.407 -0.4505  2.3450  1.1042
16528SOL     OW51577   0.039   2.883   0.412 -0.2598 -0.2006  0.1099
16528SOL    HW151578  -0.002   2.943   0.351 -0.7824  2.3453  2.7340
16528SOL    HW251579  -0.034   2.832   0.449 -0.2669 -0.0544  0.3017
16529SOL     OW51580   2.688   7.474   5.502 -0.2597 -0.1336  0.8127
16529SOL    HW151581   2.648   7.546   5.550  0.2078 -0.5385  1.8330
16529SOL    HW251582   2.763   7.448   5.555  0.5765 -0.2714 -0.3942
16530SOL     OW51583   8.550   7.932   0.206 -0.5166 -0.2880  0.6913
16530SOL    HW151584   8.566   7.865   0.272  0.3049 -1.1846 -0.3880
16530SOL    HW251585   8.518   7.884   0.130 -1.1286  0.6866  0.3153
16531SOL     OW51586   1.479   8.853   6.129  0.9929 -0.1627 -0.2480
16531SOL    HW151587   1.384   8.846   6.135  0.9764 -1.3142 -1.4267
16531SOL    HW251588   1.495   8.923   6.067  0.9316  0.3619  0.3202
16532SOL     OW51589   6.961   6.035   2.078 -0.8968  0.6345  0.3153
16532SOL    HW151590   6.906   6.018   2.002 -0.0888  1.2289 -0.4331
16532SOL    HW251591   6.902   6.074   2.142 -1.6772 -0.2607  0.1547
16533SOL     OW51592   3.669   1.714   2.567  0.1797  0.0918  0.4919
16533SOL    HW151593   3.612   1.669   2.629  0.3277  0.4989  0.9297
16533SOL    HW251594   3.623   1.795   2.546 -0.1384 -0.3108 -0.3809
16534SOL     OW51595   3.344   3.694   7.890  0.1061  0.6147 -0.0047
16534SOL    HW151596   3.361   3.780   7.852 -0.2408  1.9514  2.6473
16534SOL    HW251597   3.268   3.708   7.947  2.4599 -0.3129  3.6856
16535SOL     OW51598   1.112   4.510   7.562  0.0665 -0.2564 -0.1609
16535SOL    HW151599   1.042   4.444   7.568  0.2842 -0.5240 -0.4836
16535SOL    HW251600   1.174   4.472   7.500  0.4569  0.0199  0.0603
16536SOL     OW51601   2.385   5.958   6.928 -0.0198 -0.0025  0.3370
16536SOL    HW151602   2.379   5.864   6.944  0.9178  0.0532  1.0897
16536SOL    HW251603   2.459   5.967   6.867 -1.0520  0.1367 -0.9438
16537SOL     OW51604   8.181   8.624   1.008  0.0559  0.0548  0.1842
16537SOL    HW151605   8.258   8.674   1.035  0.5714 -0.5597 -0.1047
16537SOL    HW251606   8.216   8.540   0.978 -0.6569  0.0245 -0.6365
16538SOL     OW51607   0.895   5.844   3.799  0.3334 -0.0120  0.1687
16538SOL    HW151608   0.867   5.802   3.717 -1.1463 -0.3862  0.8224
16538SOL    HW251609   0.844   5.925   3.803 -0.7746 -0.7147  1.4058
16539SOL     OW51610   4.703   4.771   3.506 -0.4593 -0.3849  0.5188
16539SOL    HW151611   4.736   4.834   3.442  0.7202 -2.7131 -1.3097
16539SOL    HW251612   4.732   4.805   3.591 -1.4316  2.4138 -0.1464
16540SOL     OW51613   3.931   7.886   2.340  0.1948  0.1382  0.0616
16540SOL    HW151614   4.010   7.933   2.367 -0.7797  1.1636  1.2604
16540SOL    HW251615   3.877   7.953   2.297 -0.0953 -0.5074 -0.5922
16541SOL     OW51616   1.689   7.179   6.478 -0.4496 -0.3977 -0.2808
16541SOL    HW151617   1.636   7.259   6.469 -3.1423 -1.6904  2.2146
16541SOL    HW251618   1.729   7.186   6.564  0.5443 -1.0630 -0.6764
16542SOL     OW51619   4.272   8.606   5.194 -0.1954  0.1954 -0.1931
16542SOL    HW151620   4.202   8.640   5.138 -0.6311  0.8958  0.7400
16542SOL    HW251621   4.225   8.570   5.270  0.3602 -1.0347 -0.4138
16543SOL     OW51622   6.152   6.185   0.850  0.3638 -0.2166 -0.0264
16543SOL    HW151623   6.127   6.213   0.938  0.3315 -2.8474  0.9031
16543SOL    HW251624   6.176   6.265   0.804 -2.6463  1.6214  1.3611
16544SOL     OW51625   0.803   0.574   3.573 -0.2892  0.2430 -0.7033
16544SOL    HW151626   0.748   0.552   3.499 -0.0178  1.8278 -1.4133
16544SOL    HW251627   0.770   0.658   3.604 -0.0698 -0.1488  0.6639
16545SOL     OW51628   8.347   1.013   5.789  0.0930 -0.3044 -0.2024
16545SOL    HW151629   8.421   1.073   5.782 -0.5788  0.8150  1.7253
16545SOL    HW251630   8.375   0.947   5.852 -1.1655  1.2466  2.1333
16546SOL     OW51631   2.996   0.752   5.180  0.6743 -0.2972 -0.2035
16546SOL    HW151632   3.067   0.696   5.212  0.8684 -1.2880 -2.1617
16546SOL    HW251633   2.984   0.725   5.089 -1.2039  0.9058 -0.3746
16547SOL     OW51634   2.488   2.194   6.417 -0.1697  0.1127 -0.0994
16547SOL    HW151635   2.392   2.201   6.421 -0.3077  0.9714 -2.7042
16547SOL    HW251636   2.504   2.103   6.392 -0.2952 -0.0900  0.5538
16548SOL     OW51637   7.400   1.342   1.363 -0.2309 -0.2656  0.0250
16548SOL    HW151638   7.479   1.342   1.310 -0.0759  1.2076  0.2178
16548SOL    HW251639   7.431   1.355   1.453 -0.6293 -0.7219  0.2371
16549SOL     OW51640   1.102   3.805   3.996 -0.6616 -0.0645  0.2276
16549SOL    HW151641   1.195   3.812   3.974 -0.6130 -0.1373  0.4057
16549SOL    HW251642   1.101   3.790   4.091 -0.7202 -3.3603 -0.1906
16550SOL     OW51643   4.464   6.176   4.538  0.2184 -0.2838 -0.0529
16550SOL    HW151644   4.404   6.246   4.562  1.7796  0.3182  2.4768
16550SOL    HW251645   4.427   6.139   4.458 -1.7597  2.0672 -0.3353
16551SOL     OW51646   4.289   0.355   4.724 -0.2703 -0.0875  0.0581
16551SOL    HW151647   4.379   0.323   4.727 -0.5067 -0.8526 -0.6526
16551SOL    HW251648   4.238   0.285   4.765 -0.5231  0.4384  0.6547
16552SOL     OW51649   1.657   6.127   2.533  0.1762  0.0686  0.1784
16552SOL    HW151650   1.739   6.175   2.516  1.1332 -1.0035  1.5124
16552SOL    HW251651   1.670   6.042   2.491  0.1704 -0.4587  1.2140
16553SOL     OW51652   7.475   6.191   8.744  0.2585 -0.1183 -0.0211
16553SOL    HW151653   7.560   6.148   8.755  1.0439  1.4712  0.3663
16553SOL    HW251654   7.488   6.251   8.671 -0.2567  0.7538  0.5815
16554SOL     OW51655   5.626   3.112   5.722  0.1610  0.5820  0.4190
16554SOL    HW151656   5.677   3.191   5.741 -0.3954  0.8289  0.9222
16554SOL    HW251657   5.601   3.121   5.630  0.8416  0.5639  0.2312
16555SOL     OW51658   7.503   3.240   8.415 -0.0378 -0.6098 -0.0499
16555SOL    HW151659   7.516   3.308   8.349  0.6432  0.5206  1.2072
16555SOL    HW251660   7.479   3.288   8.494  3.1322 -1.5301  1.6376
16556SOL     OW51661   4.827   6.429   8.092 -0.0806 -0.2893 -0.5480
16556SOL    HW151662   4.861   6.340   8.100 -0.4933 -0.3994  0.0436
16556SOL    HW251663   4.754   6.421   8.031  1.6921  0.1699 -2.8958
16557SOL     OW51664   4.429   1.219   3.813  0.6636 -0.0160 -0.2868
16557SOL    HW151665   4.338   1.194   3.795 -0.2924  1.7842  1.5781
16557SOL    HW251666   4.433   1.313   3.793  1.9206  0.0894  0.3467
16558SOL     OW51667   2.097   0.250   0.396  0.1095 -0.3847  0.4027
16558SOL    HW151668   2.148   0.170   0.409  1.4261  0.4275  0.4214
16558SOL    HW251669   2.158   0.321   0.418 -1.2489  0.6065  1.0826
16559SOL     OW51670   8.210   8.892   4.781  0.1345  0.2531  0.0432
16559SOL    HW151671   8.164   8.914   4.861  1.3380  0.8385  0.5932
16559SOL    HW251672   8.291   8.850   4.810  1.0903  1.4390 -0.8044
16560SOL     OW51673   3.481   4.290   3.825 -0.3445 -0.3923  0.4748
16560SOL    HW151674   3.438   4.338   3.896 -0.8241 -0.5290  0.2832
16560SOL    HW251675   3.481   4.199   3.854  0.9494 -0.2281  1.0272
16561SOL     OW51676   4.934   3.111   6.831 -0.2810  0.3243  0.0468
16561SOL    HW151677   4.948   3.150   6.918 -0.2974 -2.9560  1.6936
16561SOL    HW251678   5.013   3.134   6.782  0.9373  0.1599  1.8273
16562SOL     OW51679   6.195   2.592   7.774  0.0680  0.4110 -0.1522
16562SOL    HW151680   6.216   2.520   7.833 -0.6217  0.5398  0.2678
16562SOL    HW251681   6.142   2.551   7.705 -0.0555  0.4584 -0.0851
16563SOL     OW51682   3.075   5.297   3.935  0.0572 -0.1672 -0.2255
16563SOL    HW151683   3.111   5.217   3.972  0.8701 -0.1693 -0.9901
16563SOL    HW251684   2.985   5.300   3.968  0.1490 -1.1701  0.1606
16564SOL     OW51685   4.954   2.708   4.850  0.3180  0.2790  0.0655
16564SOL    HW151686   4.913   2.793   4.868 -2.0271 -0.2193 -2.3547
16564SOL    HW251687   4.895   2.644   4.891  1.0794 -0.3036  0.2764
16565SOL     OW51688   6.956   8.736   6.197  0.0825 -0.2608  0.3793
16565SOL    HW151689   6.924   8.681   6.125 -1.1806  1.2408 -0.2836
16565SOL    HW251690   6.930   8.690   6.276  1.6135 -2.0188 -0.0544
16566SOL     OW51691   4.628   0.985   6.526  0.9472  0.4165  0.0123
16566SOL    HW151692   4.594   0.909   6.574 -2.8219  0.1674 -2.6477
16566SOL    HW251693   4.570   1.057   6.549  1.6790  1.3572 -0.9727
16567SOL     OW51694   7.323   2.842   1.573 -0.6017  0.3701 -0.4469
16567SOL    HW151695   7.273   2.818   1.495 -2.2529 -0.7286  0.8907
16567SOL    HW251696   7.329   2.937   1.570 -2.7295  0.5254 -0.6960
16568SOL     OW51697   6.727   5.137   0.822 -0.2924 -0.3648 -0.2793
16568SOL    HW151698   6.726   5.061   0.880  0.3594  1.2544  1.9714
16568SOL    HW251699   6.639   5.173   0.828 -0.5949 -0.9016 -1.3264
16569SOL     OW51700   7.760   1.797   3.056  0.8414  0.3396  0.1055
16569SOL    HW151701   7.687   1.750   3.016 -0.1890  0.8927  1.2680
16569SOL    HW251702   7.822   1.728   3.080  0.7773 -0.1241 -1.0135
16570SOL     OW51703   3.220   3.293   8.430  0.4703 -0.3620 -0.6721
16570SOL    HW151704   3.255   3.355   8.367 -1.6719  0.0583 -1.5400
16570SOL    HW251705   3.278   3.217   8.424  1.7306  0.6161 -1.3377
16571SOL     OW51706   8.825   7.784   8.093 -0.2008  0.8041 -0.4099
16571SOL    HW151707   8.861   7.859   8.140 -0.8968  1.1985 -0.5037
16571SOL    HW251708   8.880   7.777   8.014  3.2152 -1.8900  1.8674
16572SOL     OW51709   7.024   4.534   1.424 -0.1442 -0.1137 -0.1735
16572SOL    HW151710   7.053   4.623   1.406 -0.3626 -0.1797 -0.8599
16572SOL    HW251711   7.101   4.490   1.458  0.6454 -0.3490 -2.1689
16573SOL     OW51712   1.822   5.800   3.711  0.1973  0.3287  0.2463
16573SOL    HW151713   1.894   5.859   3.734  2.1960 -1.7268 -0.3334
16573SOL    HW251714   1.776   5.846   3.640  0.9428  1.6940  0.6043
16574SOL     OW51715   6.627   6.616   2.121 -0.8568 -0.5719  0.1009
16574SOL    HW151716   6.643   6.522   2.115 -0.7530 -0.4805 -1.5935
16574SOL    HW251717   6.712   6.656   2.105 -0.7060 -0.1609  1.7182
16575SOL     OW51718   0.174   3.548   0.347  0.1863 -0.4744  0.0455
16575SOL    HW151719   0.265   3.539   0.319  0.2303  1.7679 -0.7419
16575SOL    HW251720   0.133   3.466   0.321  2.1964 -2.0873  1.5416
16576SOL     OW51721   1.970   0.529   0.354 -0.0380 -0.2252 -0.1976
16576SOL    HW151722   1.984   0.474   0.431  1.2349 -0.5239 -0.6177
16576SOL    HW251723   2.047   0.586   0.351  0.1653 -0.5371 -1.4997
16577SOL     OW51724   8.224   3.123   8.136  0.1772 -0.7192  0.0740
16577SOL    HW151725   8.308   3.099   8.099  0.3343 -0.4360  0.2456
16577SOL    HW251726   8.244   3.189   8.202 -0.2631  0.0276 -0.5199
16578SOL     OW51727   8.664   5.447   1.393 -0.0216 -0.4930 -0.0218
16578SOL    HW151728   8.603   5.483   1.458  1.1703  1.2980  0.1651
16578SOL    HW251729   8.629   5.476   1.309  1.0391  1.3613  0.1393
16579SOL     OW51730   3.170   1.028   1.993  0.4350  0.4356  0.0604
16579SOL    HW151731   3.143   0.953   2.046  0.0392 -0.1367 -0.9173
16579SOL    HW251732   3.089   1.079   1.983  0.5299  0.5884  0.0817
16580SOL     OW51733   5.981   7.390   2.123 -0.8797 -0.4039  0.3503
16580SOL    HW151734   6.061   7.377   2.175 -0.9971 -1.5202  0.2856
16580SOL    HW251735   5.964   7.484   2.128  0.4246 -0.1427  0.3845
16581SOL     OW51736   0.137   3.105   3.714  0.2392  0.3476 -0.5173
16581SOL    HW151737   0.197   3.053   3.767  0.3663  0.9522 -0.0452
16581SOL    HW251738   0.162   3.087   3.624  0.4283 -0.2228 -0.3577
16582SOL     OW51739   3.912   2.122   5.944 -0.1214  0.6143 -0.5065
16582SOL    HW151740   4.007   2.111   5.948 -0.2244 -2.0023 -2.3632
16582SOL    HW251741   3.877   2.035   5.963 -2.0005  0.8792 -2.3799
16583SOL     OW51742   6.643   1.548   7.897 -0.2970  0.1124 -0.2738
16583SOL    HW151743   6.664   1.596   7.977 -0.5119  0.8578 -0.6609
16583SOL    HW251744   6.685   1.463   7.909 -1.5600 -0.3381  1.2880
16584SOL     OW51745   0.957   6.965   0.035 -0.3428 -0.3061 -0.3219
16584SOL    HW151746   0.915   6.886  -0.002 -1.2695 -0.4798  1.0219
16584SOL    HW251747   1.042   6.934   0.066 -1.4255 -1.3159  1.9315
16585SOL     OW51748   0.034   8.264   7.582  0.1044  0.1432  0.8641
16585SOL    HW151749  -0.024   8.336   7.556  1.3610  1.0685  0.5461
16585SOL    HW251750   0.003   8.239   7.668 -0.5858  0.8360  0.8312
16586SOL     OW51751   1.680   0.575   5.675 -0.0140 -0.3912 -0.1991
16586SOL    HW151752   1.718   0.597   5.590  0.4849  1.3775  0.4355
16586SOL    HW251753   1.622   0.649   5.695 -1.7523 -1.7458  0.0886
16587SOL     OW51754   5.959   6.980   1.552  0.3446 -0.8519  0.2092
16587SOL    HW151755   5.949   7.033   1.473  1.7644  0.4035  0.8029
16587SOL    HW251756   5.963   6.890   1.521  0.1411 -0.4418 -1.0733
16588SOL     OW51757   5.208   6.941   2.872  0.2526  0.3600 -0.0085
16588SOL    HW151758   5.141   6.883   2.907  1.1546 -1.0432 -0.4957
16588SOL    HW251759   5.191   6.943   2.778  0.0403  1.1695  0.0368
16589SOL     OW51760   7.245   7.800   1.304 -0.1112 -0.1609  0.2073
16589SOL    HW151761   7.158   7.787   1.265 -0.1694  3.7967 -1.4558
16589SOL    HW251762   7.306   7.790   1.231  0.2728  2.0780  0.1568
16590SOL     OW51763   8.036   0.435   0.281 -0.2531  0.2390  0.4333
16590SOL    HW151764   8.032   0.511   0.224  0.7508  0.4656  0.6538
16590SOL    HW251765   7.956   0.386   0.262  0.3267  0.0089 -1.5781
16591SOL     OW51766   6.758   4.089   3.352 -0.4473  0.2468 -0.0522
16591SOL    HW151767   6.752   3.993   3.357 -1.6893  0.3617  1.9311
16591SOL    HW251768   6.852   4.107   3.359  0.0458 -0.8306 -2.6996
16592SOL     OW51769   1.375   1.042   5.538 -0.2048 -0.3589  0.4098
16592SOL    HW151770   1.429   1.120   5.531 -1.6818  0.6644  0.0293
16592SOL    HW251771   1.346   1.041   5.629  0.3424 -0.8569  0.5890
16593SOL     OW51772   8.704   8.337   6.921  0.2055 -0.2060  0.7088
16593SOL    HW151773   8.800   8.340   6.914  0.1383 -0.3909 -0.5947
16593SOL    HW251774   8.687   8.279   6.996  1.1111 -0.5567  0.6572
16594SOL     OW51775   1.868   5.160   2.767 -0.4084  0.2221 -0.3111
16594SOL    HW151776   1.931   5.207   2.712  1.3807 -1.6504  0.0041
16594SOL    HW251777   1.824   5.100   2.707 -1.6520  1.2212 -0.4453
16595SOL     OW51778   1.795   2.936   7.701  0.8886 -0.3680 -0.4954
16595SOL    HW151779   1.742   2.883   7.761  0.3304 -0.9344 -1.4590
16595SOL    HW251780   1.883   2.933   7.738  0.5093 -0.5116  0.4222
16596SOL     OW51781   8.143   7.185   6.579 -0.0886  0.1155 -0.2800
16596SOL    HW151782   8.151   7.274   6.613 -0.2172  0.1015 -0.2104
16596SOL    HW251783   8.055   7.158   6.606  0.0013 -0.0816 -0.1836
16597SOL     OW51784   6.981   4.268   4.505  0.0591  0.3817  0.6216
16597SOL    HW151785   6.917   4.263   4.435 -1.6997  0.0145  2.1631
16597SOL    HW251786   7.019   4.355   4.498 -0.0704  0.3428 -0.7617
16598SOL     OW51787   3.129   4.535   4.407 -0.3844  0.4967  0.7324
16598SOL    HW151788   3.220   4.513   4.388 -0.4646  2.4360 -2.6369
16598SOL    HW251789   3.133   4.580   4.492  1.7842  0.4901  0.6984
16599SOL     OW51790   6.271   3.187   5.301 -0.4466  0.0429  0.3447
16599SOL    HW151791   6.360   3.167   5.330 -0.7821 -1.0347  0.6582
16599SOL    HW251792   6.220   3.109   5.323 -1.4359  0.5756  0.0041
16600SOL     OW51793   3.842   2.868   1.753  0.1952 -0.2439 -0.0335
16600SOL    HW151794   3.758   2.827   1.734  0.0653 -0.0106  0.0373
16600SOL    HW251795   3.829   2.912   1.837  0.3093  0.0084 -0.1474
16601SOL     OW51796   1.336   2.882   4.976  0.6579  0.5033  0.2132
16601SOL    HW151797   1.281   2.868   5.053  3.0140  2.9794  2.5698
16601SOL    HW251798   1.400   2.811   4.980  0.3921  0.2563  0.1366
16602SOL     OW51799   5.734   2.427   5.065  0.1578 -0.1611  0.8459
16602SOL    HW151800   5.671   2.357   5.048 -0.4732  0.5903 -0.0551
16602SOL    HW251801   5.702   2.470   5.145 -1.7325  1.4911 -0.6666
16603SOL     OW51802   7.855   1.626   1.496  0.4883  0.0496  0.1762
16603SOL    HW151803   7.769   1.660   1.469  1.1364  0.1658 -1.9310
16603SOL    HW251804   7.837   1.536   1.523 -0.2909  0.0226 -0.3881
16604SOL     OW51805   1.848   7.946   6.682 -0.2655 -0.4182  0.1675
16604SOL    HW151806   1.941   7.936   6.661 -0.2155 -2.7700  1.1460
16604SOL    HW251807   1.841   7.917   6.773 -1.9735 -0.3512  0.0885
16605SOL     OW51808   3.468   0.085   0.316 -0.1806  0.0752 -0.0436
16605SOL    HW151809   3.561   0.107   0.327  0.1225 -1.7305  1.3721
16605SOL    HW251810   3.469  -0.004   0.281 -1.3807 -0.3651  1.0084
16606SOL     OW51811   0.155   8.425   7.295  0.0903 -0.4863 -0.3437
16606SOL    HW151812   0.219   8.430   7.365 -1.7329  0.9381  1.3161
16606SOL    HW251813   0.113   8.339   7.307  0.8637 -0.9336 -0.7368
16607SOL     OW51814   6.582   7.059   5.195 -0.0919  0.1475 -0.7270
16607SOL    HW151815   6.505   7.060   5.138 -0.7661 -0.7477  0.1312
16607SOL    HW251816   6.558   7.001   5.267  1.0483  0.5978  0.0482
16608SOL     OW51817   3.820   5.596   7.871  0.5208 -0.4042  0.2440
16608SOL    HW151818   3.858   5.666   7.924 -0.1886  0.8258 -0.8098
16608SOL    HW251819   3.865   5.517   7.899  2.5115  0.7159  0.3375
16609SOL     OW51820   8.718   1.881   4.464 -0.4335  0.6441 -0.4165
16609SOL    HW151821   8.736   1.806   4.521  0.8388  1.2456  0.0196
16609SOL    HW251822   8.628   1.869   4.436 -0.5345 -0.5807  0.3515
16610SOL     OW51823   1.732   1.513   6.895 -0.0480  0.0336  0.1136
16610SOL    HW151824   1.657   1.466   6.859 -0.8313  1.0755  0.3758
16610SOL    HW251825   1.699   1.599   6.918  0.8554 -0.0045  1.7003
16611SOL     OW51826   3.669   5.381   5.690 -0.1275  0.1574 -0.1236
16611SOL    HW151827   3.682   5.449   5.757  2.4563 -0.3016 -0.0619
16611SOL    HW251828   3.681   5.427   5.607  1.4559 -0.1173 -0.0856
16612SOL     OW51829   5.569   1.610   0.509  0.1659  0.2043 -0.7014
16612SOL    HW151830   5.519   1.690   0.493  0.9803  0.5675 -1.4917
16612SOL    HW251831   5.635   1.608   0.440  0.9222 -0.5277  0.0152
16613SOL     OW51832   7.214   2.934   6.796  0.1717  0.3008 -0.2291
16613SOL    HW151833   7.196   2.976   6.880 -1.0003 -0.0398 -0.2827
16613SOL    HW251834   7.153   2.860   6.793  2.1142 -1.3864 -0.1794
16614SOL     OW51835   3.260   4.095   4.044 -0.4346  0.0041 -0.0650
16614SOL    HW151836   3.324   4.029   4.070  0.0450 -0.0564 -1.3102
16614SOL    HW251837   3.284   4.117   3.954 -0.2686  2.2530  0.4696
16615SOL     OW51838   5.399   7.993   8.490 -0.1109 -0.2330  0.4158
16615SOL    HW151839   5.424   7.972   8.400  1.2369 -0.8665  0.9082
16615SOL    HW251840   5.337   8.066   8.481  0.6565  0.2952 -0.9904
16616SOL     OW51841   7.816   6.444   8.795 -0.1092  0.1580  0.3344
16616SOL    HW151842   7.889   6.412   8.742  0.1428  0.9014  0.2286
16616SOL    HW251843   7.790   6.368   8.847 -0.5754 -0.6898 -1.0669
16617SOL     OW51844   0.239   7.921   5.553  0.1160 -0.7512  0.2335
16617SOL    HW151845   0.276   7.864   5.485  0.5690  0.7960 -0.8793
16617SOL    HW251846   0.152   7.943   5.520  0.2881 -0.0953  0.1994
16618SOL     OW51847   1.752   4.363   8.255 -0.3552 -0.6148 -0.8390
16618SOL    HW151848   1.807   4.294   8.291 -0.0246  0.5499  1.0047
16618SOL    HW251849   1.667   4.321   8.241  0.2732 -1.7802 -1.3145
16619SOL     OW51850   7.637   7.663   4.795  0.4852 -0.3728 -0.1575
16619SOL    HW151851   7.704   7.615   4.843  2.3986  0.2204 -2.0929
16619SOL    HW251852   7.645   7.753   4.826  0.8344 -0.2314 -0.6608
16620SOL     OW51853   0.061   6.719   3.532  0.3271  0.2313  0.1470
16620SOL    HW151854   0.017   6.768   3.462 -0.9446 -0.0579  0.7172
16620SOL    HW251855   0.026   6.755   3.613 -1.7515 -2.4695  0.6044
16621SOL     OW51856   8.140   0.725   2.249  0.0123 -0.7455  0.3867
16621SOL    HW151857   8.088   0.677   2.313 -1.1860 -0.6463 -0.4731
16621SOL    HW251858   8.077   0.749   2.181  1.0838 -0.1078 -0.4039
16622SOL     OW51859   1.622   8.208   4.600 -0.0212 -0.0088  0.0591
16622SOL    HW151860   1.697   8.232   4.654  0.0461 -1.1399  0.4905
16622SOL    HW251861   1.609   8.283   4.543  1.0823  0.4400  0.3706
16623SOL     OW51862   3.710   3.069   0.701 -0.5270 -0.2299  0.4647
16623SOL    HW151863   3.615   3.076   0.702 -0.4430  1.3243  0.1962
16623SOL    HW251864   3.728   2.997   0.640 -1.5225 -0.3077  0.2509
16624SOL     OW51865   3.260   4.140   5.336  0.2446  0.0432 -0.0351
16624SOL    HW151866   3.274   4.089   5.256 -0.1049  0.3874 -0.3181
16624SOL    HW251867   3.223   4.077   5.398  1.2243 -0.4106  0.1089
16625SOL     OW51868   7.862   2.234   7.221  0.1250 -0.1563  0.1744
16625SOL    HW151869   7.909   2.276   7.148  3.0019 -2.7712  0.3099
16625SOL    HW251870   7.779   2.206   7.183 -0.2448  2.0946 -0.9078
16626SOL     OW51871   8.862   0.793   2.326 -0.4918 -0.2429 -0.2814
16626SOL    HW151872   8.799   0.863   2.308  0.4099  1.0491  1.2136
16626SOL    HW251873   8.943   0.822   2.283  0.2341  0.3224  1.3698
16627SOL     OW51874   2.063   8.625   7.421  0.0451 -0.1557 -0.4921
16627SOL    HW151875   2.078   8.713   7.457 -1.5256  0.4166 -1.1708
16627SOL    HW251876   2.049   8.640   7.327 -1.0860 -1.0225 -0.4755
16628SOL     OW51877   3.762   7.784   1.220 -0.4901  0.0078 -0.3393
16628SOL    HW151878   3.693   7.726   1.186 -0.8523 -0.7556  1.5103
16628SOL    HW251879   3.837   7.726   1.233 -0.1157  0.4393 -0.5916
16629SOL     OW51880   3.009   1.702   7.549 -0.1811 -0.0038  0.0379
16629SOL    HW151881   2.993   1.704   7.455  0.6443  0.4938 -0.1058
16629SOL    HW251882   3.046   1.615   7.565 -1.1557 -0.4253  0.0602
16630SOL     OW51883   7.308   6.427   4.965 -0.3545  0.2140  0.1236
16630SOL    HW151884   7.221   6.454   4.938 -0.2306  2.2292  1.5233
16630SOL    HW251885   7.321   6.342   4.923 -2.5997  0.2897 -0.8566
16631SOL     OW51886   3.029   3.799   2.816  0.2454  0.1917  0.1409
16631SOL    HW151887   3.000   3.803   2.907  0.1744 -1.3214  0.2083
16631SOL    HW251888   3.010   3.886   2.781 -0.4036  0.5643  1.3645
16632SOL     OW51889   0.117   0.834   1.914  0.8114 -0.5725  0.4495
16632SOL    HW151890   0.042   0.800   1.963  0.0761 -2.3901 -1.7678
16632SOL    HW251891   0.191   0.781   1.943  0.5742 -0.9839  0.3184
16633SOL     OW51892   8.083   8.249   6.539 -0.2967  0.2592 -0.4653
16633SOL    HW151893   7.989   8.244   6.524 -0.9617  1.1398  2.7118
16633SOL    HW251894   8.106   8.165   6.579  0.1559  0.2675 -0.6967
16634SOL     OW51895   3.500   2.313   5.801  0.1588  0.0065 -0.4001
16634SOL    HW151896   3.558   2.244   5.770 -0.5474 -0.3187 -1.0189
16634SOL    HW251897   3.430   2.317   5.735 -0.5031  0.4138  0.3133
16635SOL     OW51898   4.950   2.970   4.021  0.1901  0.1060  0.2027
16635SOL    HW151899   4.992   2.962   4.107 -0.3195  1.4099  0.5944
16635SOL    HW251900   4.869   3.019   4.038  1.0971  2.2618 -1.3100
16636SOL     OW51901   2.970   0.605   4.949 -0.0868  0.3899 -0.1455
16636SOL    HW151902   2.890   0.564   4.913 -0.7961  0.8600  0.8626
16636SOL    HW251903   3.016   0.637   4.871 -1.0437  0.4021 -0.7360
16637SOL     OW51904   7.913   0.781   7.389 -0.5595 -0.6875 -0.2577
16637SOL    HW151905   7.997   0.739   7.371  0.5588  0.5938  1.6506
16637SOL    HW251906   7.907   0.781   7.484 -2.1388  0.3919 -0.3259
16638SOL     OW51907   3.141   3.607   4.823  0.4463  0.3448 -0.5400
16638SOL    HW151908   3.176   3.690   4.856 -0.2725  0.2173  0.6165
16638SOL    HW251909   3.176   3.541   4.883 -1.3970  0.1748  0.4215
16639SOL     OW51910   2.894   4.976   4.871 -0.3722 -0.2300  0.1195
16639SOL    HW151911   2.976   4.998   4.915 -0.7198  0.2302  0.5484
16639SOL    HW251912   2.855   4.908   4.926  0.0593 -0.9766 -0.4776
16640SOL     OW51913   5.231   1.879   8.399  0.1521 -0.5996  0.2853
16640SOL    HW151914   5.179   1.943   8.447 -1.4380 -1.1822 -0.6247
16640SOL    HW251915   5.176   1.852   8.326  1.1667 -2.2892  0.0895
16641SOL     OW51916   8.608   6.678   2.514 -0.3441 -0.2418 -0.3348
16641SOL    HW151917   8.615   6.714   2.426  0.5902 -0.7560 -0.4824
16641SOL    HW251918   8.673   6.725   2.565 -2.6053  1.9033  0.7659
16642SOL     OW51919   1.935   8.009   7.642 -0.0596 -0.1062 -0.4355
16642SOL    HW151920   2.017   7.995   7.595 -0.0608  1.4325 -0.9610
16642SOL    HW251921   1.906   8.096   7.615 -0.9507  0.1276  1.1170
16643SOL     OW51922   3.904   3.779   6.695  0.4510 -0.3930 -0.1362
16643SOL    HW151923   3.981   3.808   6.646  1.1749  1.1400  1.8136
16643SOL    HW251924   3.830   3.801   6.638  1.3338 -0.1693 -1.2363
16644SOL     OW51925   1.962   0.067   5.383 -0.3553  0.0517 -0.1786
16644SOL    HW151926   1.900   0.005   5.420 -2.2642  2.6118  1.2612
16644SOL    HW251927   2.033   0.071   5.447  0.2484 -1.2585 -0.7357
16645SOL     OW51928   3.111   2.693   2.516  0.1086 -0.8957 -0.0554
16645SOL    HW151929   3.050   2.675   2.588 -1.3445  2.3584 -0.2958
16645SOL    HW251930   3.193   2.716   2.559 -0.2585 -0.5970  0.5051
16646SOL     OW51931   8.025   4.300   3.775 -0.2847 -0.2274  0.1603
16646SOL    HW151932   8.081   4.377   3.765  1.3134 -1.3069  0.4181
16646SOL    HW251933   7.955   4.329   3.833 -0.4022  1.3573 -0.7130
16647SOL     OW51934   5.225   1.350   6.079  0.1051 -0.2799 -0.1853
16647SOL    HW151935   5.235   1.260   6.047  0.3466 -0.5845  0.7088
16647SOL    HW251936   5.218   1.341   6.174  0.1573  0.6510 -0.0813
16648SOL     OW51937   8.717   3.219   1.201 -0.4033 -0.1110 -0.3508
16648SOL    HW151938   8.664   3.186   1.129  0.5932  1.0624 -1.6950
16648SOL    HW251939   8.802   3.238   1.161 -0.3797  2.3257  0.6762
16649SOL     OW51940   1.185   0.381   6.033  0.1670  0.5525  0.1657
16649SOL    HW151941   1.266   0.432   6.031  0.4302  0.2467  1.6450
16649SOL    HW251942   1.150   0.395   6.121  0.7912 -2.5670  1.0671
16650SOL     OW51943   3.746   3.777   8.010  0.1169  0.6753  0.1448
16650SOL    HW151944   3.768   3.691   7.975  1.3907  0.6082  1.0430
16650SOL    HW251945   3.654   3.769   8.038  0.2311 -0.4037  0.2453
16651SOL     OW51946   8.080   7.066   6.335 -0.3383  0.0014 -0.5737
16651SOL    HW151947   8.123   6.983   6.316 -1.5399 -0.9862  0.8277
16651SOL    HW251948   8.100   7.083   6.428  0.8612  1.9110 -1.1066
16652SOL     OW51949   7.720   7.816   4.062  0.0366  0.4094 -0.6345
16652SOL    HW151950   7.669   7.842   4.138  0.4191  0.4668 -0.3897
16652SOL    HW251951   7.664   7.833   3.987 -1.1221 -1.4911 -0.2566
16653SOL     OW51952   5.527   3.615   5.746  0.0391  0.4118 -0.2095
16653SOL    HW151953   5.489   3.540   5.791 -0.1792  0.6310 -0.0249
16653SOL    HW251954   5.451   3.662   5.710  0.0972  1.1315  0.5941
16654SOL     OW51955   3.323   6.296   1.460 -0.0319 -0.0105  0.0323
16654SOL    HW151956   3.322   6.210   1.503  1.0278 -0.1048 -0.1120
16654SOL    HW251957   3.347   6.357   1.529  0.1535  0.0419 -0.0786
16655SOL     OW51958   7.414   2.136   6.767 -0.3857 -0.1118  0.0587
16655SOL    HW151959   7.374   2.090   6.693  1.2357  0.1250 -1.0445
16655SOL    HW251960   7.475   2.073   6.805 -0.3163  0.1657  0.4182
16656SOL     OW51961   7.693   0.514   1.954  0.2978  0.0495  0.5467
16656SOL    HW151962   7.779   0.547   1.979  0.0315  0.5488  0.8321
16656SOL    HW251963   7.705   0.482   1.865  0.8855 -0.3064  0.7500
16657SOL     OW51964   0.688   7.365   0.214 -0.3336  0.7253 -0.9417
16657SOL    HW151965   0.708   7.391   0.305  1.6723 -1.3815 -0.6653
16657SOL    HW251966   0.774   7.346   0.176 -1.3314 -1.2412 -2.3635
16658SOL     OW51967   4.888   6.577   5.117 -0.2358  0.4309  0.6717
16658SOL    HW151968   4.969   6.540   5.083 -0.1161  0.9174  0.4189
16658SOL    HW251969   4.826   6.572   5.045  0.0742  1.6390  0.2959
16659SOL     OW51970   3.778   4.642   4.149  0.8534 -0.5575 -0.7011
16659SOL    HW151971   3.730   4.654   4.068  1.2882 -0.2721 -0.9227
16659SOL    HW251972   3.802   4.549   4.150  0.0004 -0.7856 -0.4118
16660SOL     OW51973   2.459   2.930   4.661  0.6869 -0.6124  0.2391
16660SOL    HW151974   2.371   2.905   4.689 -0.5552  2.0287 -0.9414
16660SOL    HW251975   2.473   3.016   4.700  1.7839  0.0048 -1.4031
16661SOL     OW51976   8.359   6.308   6.957 -0.0953  0.3372  0.0078
16661SOL    HW151977   8.352   6.288   7.050 -0.8919  0.7365  0.0385
16661SOL    HW251978   8.367   6.223   6.915  1.6376  0.1997  0.5300
16662SOL     OW51979   6.502   3.489   1.852  0.0603 -0.0182 -0.4394
16662SOL    HW151980   6.500   3.514   1.760  1.8306 -1.5220 -0.9555
16662SOL    HW251981   6.471   3.398   1.853 -0.2074  0.0696  0.5033
16663SOL     OW51982   4.374   5.102   8.895 -0.0021 -0.6108  0.2188
16663SOL    HW151983   4.299   5.142   8.938 -0.5047 -0.0988 -1.0890
16663SOL    HW251984   4.347   5.011   8.881 -0.1021 -0.6053  0.3733
16664SOL     OW51985   8.068   0.441   0.548 -0.3657 -0.7414  0.1143
16664SOL    HW151986   8.044   0.430   0.456 -1.4731 -0.1854  0.3178
16664SOL    HW251987   7.984   0.448   0.594  0.1665  0.8503  0.9350
16665SOL     OW51988   1.617   8.197   3.159  0.2707 -0.3772 -0.0737
16665SOL    HW151989   1.658   8.279   3.131  0.9053 -0.4400  0.6530
16665SOL    HW251990   1.586   8.214   3.248  1.7963 -1.3785  0.6890
16666SOL     OW51991   0.209   1.697   4.820  0.1679 -0.5523 -0.1012
16666SOL    HW151992   0.255   1.623   4.781 -0.3746 -0.1394 -1.5671
16666SOL    HW251993   0.249   1.775   4.781  0.9437 -0.0080  1.6543
16667SOL     OW51994   5.076   8.622   6.227 -0.1117 -0.5792  0.0298
16667SOL    HW151995   5.149   8.669   6.267 -0.3713 -0.2642  0.1408
16667SOL    HW251996   5.021   8.597   6.301 -0.1618 -0.7388 -0.0606
16668SOL     OW51997   0.811   2.684   0.230 -0.3642  0.6450  0.3497
16668SOL    HW151998   0.815   2.665   0.136  1.2845 -1.2814  0.7418
16668SOL    HW251999   0.870   2.759   0.242  1.1181 -0.4171  0.0701
16669SOL     OW52000   2.967   7.092   7.043 -0.5424 -0.0921  0.3418
16669SOL    HW152001   2.977   7.000   7.068 -2.1300 -0.3705  0.0534
16669SOL    HW252002   2.907   7.089   6.968  0.7877  1.0465 -0.8315
16670SOL     OW52003   5.891   0.933   5.414  0.1344 -0.3799  0.3166
16670SOL    HW152004   5.926   0.877   5.483 -1.5923 -1.4546  0.3975
16670SOL    HW252005   5.840   0.874   5.359 -0.9165  0.9453 -0.1959
16671SOL     OW52006   0.753   0.009   2.566 -0.5625  0.5724  0.3581
16671SOL    HW152007   0.832  -0.037   2.540 -1.4150 -1.4674  1.1495
16671SOL    HW252008   0.697   0.009   2.489 -0.8364 -0.4099  0.5412
16672SOL     OW52009   6.721   0.524   6.276  0.5373 -0.1204 -0.3888
16672SOL    HW152010   6.764   0.551   6.195  0.4279 -1.0572 -0.7740
16672SOL    HW252011   6.662   0.597   6.297  0.9819  0.3787 -0.8378
16673SOL     OW52012   7.735   6.354   6.887  0.1265 -0.2967 -0.1760
16673SOL    HW152013   7.718   6.380   6.796 -0.2645  2.4254  0.5990
16673SOL    HW252014   7.819   6.393   6.907 -1.4968  2.5454  1.7359
16674SOL     OW52015   3.410   3.368   3.524 -0.3696  0.5067 -0.3601
16674SOL    HW152016   3.432   3.448   3.572 -0.9218 -1.0336  2.6895
16674SOL    HW252017   3.316   3.374   3.509 -0.7615 -0.2398  1.4501
16675SOL     OW52018   1.992   6.616   1.190  0.1721 -0.0360  0.1393
16675SOL    HW152019   1.966   6.603   1.281  0.4746  0.6562  0.3289
16675SOL    HW252020   1.926   6.675   1.153  1.0461  1.1739  0.4347
16676SOL     OW52021   1.028   4.716   3.234 -0.4052  0.3238 -0.4411
16676SOL    HW152022   1.049   4.691   3.324 -1.2665 -1.0060 -0.5827
16676SOL    HW252023   0.934   4.702   3.226  0.0532 -2.7114 -2.4166
16677SOL     OW52024   8.578   6.756   3.408  0.0566  0.2054  0.4497
16677SOL    HW152025   8.599   6.718   3.493 -0.0400  0.4788  0.5970
16677SOL    HW252026   8.634   6.833   3.400 -0.1983  0.3931  0.4302
16678SOL     OW52027   3.639   5.929   4.514  0.4951  0.0765 -0.0199
16678SOL    HW152028   3.719   5.877   4.508  1.5789  1.5925  0.8384
16678SOL    HW252029   3.572   5.866   4.542  1.3166 -1.2545 -0.9325
16679SOL     OW52030   2.636   7.535   5.223  0.2183 -0.5743 -0.1362
16679SOL    HW152031   2.720   7.491   5.211 -0.7817 -1.9780 -2.9515
16679SOL    HW252032   2.571   7.469   5.199 -1.5256  1.3914 -1.1473
16680SOL     OW52033   5.510   8.301   8.547 -0.2025  0.6412 -0.3933
16680SOL    HW152034   5.440   8.300   8.482 -0.0123  1.4970 -0.6289
16680SOL    HW252035   5.466   8.287   8.630 -0.5360  0.2282 -0.6346
16681SOL     OW52036   6.860   0.660   7.621  0.8626 -0.6737 -0.2402
16681SOL    HW152037   6.911   0.668   7.540 -0.0206 -1.8482 -0.9437
16681SOL    HW252038   6.769   0.672   7.593  0.4760 -1.9237  0.4249
16682SOL     OW52039   7.664   4.747   1.415 -0.0615 -0.1809 -0.2995
16682SOL    HW152040   7.717   4.668   1.405 -0.9084 -0.9362  0.8841
16682SOL    HW252041   7.652   4.755   1.509 -1.9388  0.0352 -0.5336
16683SOL     OW52042   8.517   3.087   4.842  0.6974  0.1898  0.0026
16683SOL    HW152043   8.575   3.158   4.814 -0.5411  0.6957 -1.4584
16683SOL    HW252044   8.515   3.028   4.767  0.2584 -0.4302  0.4931
16684SOL     OW52045   0.699   6.096   5.518  0.0627  0.2821  0.3447
16684SOL    HW152046   0.643   6.174   5.526  0.6987  0.6348  1.7113
16684SOL    HW252047   0.785   6.126   5.548  0.9210 -0.3330 -1.4160
16685SOL     OW52048   0.425   6.418   6.780  0.1044  0.0610  0.4475
16685SOL    HW152049   0.468   6.347   6.732  1.2277  1.5542 -0.8666
16685SOL    HW252050   0.470   6.421   6.865  3.3605  2.0752 -1.1580
16686SOL     OW52051   4.334   7.889   2.802 -0.2928  0.3324  0.0798
16686SOL    HW152052   4.336   7.918   2.894  0.3118 -2.5994  1.1210
16686SOL    HW252053   4.341   7.969   2.751 -2.7402  2.3012  2.5356
16687SOL     OW52054   8.383   7.823   2.581 -0.1037 -0.0626 -0.1734
16687SOL    HW152055   8.370   7.865   2.497  1.2998  0.4315 -0.1646
16687SOL    HW252056   8.348   7.885   2.645 -0.4345 -0.0845 -0.3304
16688SOL     OW52057   7.956   1.293   5.086 -0.0400 -0.4459 -0.8518
16688SOL    HW152058   8.019   1.248   5.141 -1.7590  0.1471  1.7709
16688SOL    HW252059   7.884   1.230   5.076 -0.6781  0.2197 -0.5763
16689SOL     OW52060   1.294   0.534   1.369 -0.6662  0.5852  0.3312
16689SOL    HW152061   1.240   0.460   1.342  1.2105  0.1192 -2.4852
16689SOL    HW252062   1.333   0.506   1.452  0.5476 -1.9553 -1.0096
16690SOL     OW52063   4.618   4.840   7.617  0.5390 -0.0859  0.0434
16690SOL    HW152064   4.574   4.851   7.533  1.4626 -1.6328 -0.7004
16690SOL    HW252065   4.613   4.926   7.659 -2.8029 -0.0727 -0.1217
16691SOL     OW52066   6.614   7.780   6.507 -0.0793  0.0254  0.8830
16691SOL    HW152067   6.532   7.751   6.547 -0.4910 -0.6449 -0.4063
16691SOL    HW252068   6.646   7.704   6.459  0.8838  0.5322  0.7022
16692SOL     OW52069   7.569   3.765   4.276  0.1573  0.6942  0.0909
16692SOL    HW152070   7.547   3.848   4.318 -1.9917  0.0135  0.4532
16692SOL    HW252071   7.661   3.773   4.251  0.2723  2.7646  1.0512
16693SOL     OW52072   3.926   5.605   7.288  0.1785 -0.7379 -0.2289
16693SOL    HW152073   3.958   5.596   7.198  0.0044 -0.0867 -0.3604
16693SOL    HW252074   3.834   5.580   7.284 -0.1003  0.3130 -0.4389
16694SOL     OW52075   3.697   4.630   8.035 -0.3306  0.3763  0.2229
16694SOL    HW152076   3.652   4.715   8.039 -1.0590 -0.0126  0.3786
16694SOL    HW252077   3.754   4.637   7.958  1.9081  2.1076  1.8950
16695SOL     OW52078   3.506   5.719   4.629 -0.4450  0.1506 -0.7749
16695SOL    HW152079   3.588   5.721   4.677 -0.7642  0.9713 -0.2272
16695SOL    HW252080   3.475   5.629   4.637 -0.7629  0.3722  1.0844
16696SOL     OW52081   7.678   4.040   5.455 -0.1421  0.3128 -0.2335
16696SOL    HW152082   7.665   4.056   5.362 -0.2763 -0.3487 -0.3344
16696SOL    HW252083   7.666   3.945   5.465  3.7863 -0.3431 -0.1833
16697SOL     OW52084   3.223   1.471   1.429  0.3229  0.2669  0.2455
16697SOL    HW152085   3.212   1.383   1.393  0.2246  0.1676  0.5180
16697SOL    HW252086   3.229   1.528   1.352 -1.1710  0.2145  0.0737
16698SOL     OW52087   8.813   1.980   1.315  0.2612 -0.1604 -0.4012
16698SOL    HW152088   8.847   2.041   1.380  0.8173 -0.8727 -0.0040
16698SOL    HW252089   8.724   2.011   1.297 -0.0338 -0.1528  0.9657
16699SOL     OW52090   4.690   8.221   4.598 -0.3425 -0.4585  0.4955
16699SOL    HW152091   4.626   8.212   4.668 -1.3987  0.8572 -0.2456
16699SOL    HW252092   4.713   8.314   4.598  2.3238 -1.0288  1.3424
16700SOL     OW52093   2.029   2.868   6.695  0.4674  0.2078  0.1672
16700SOL    HW152094   2.052   2.937   6.633 -0.6863  0.8348  0.4224
16700SOL    HW252095   2.114   2.833   6.724  1.0338  0.2657 -1.3310
16701SOL     OW52096   2.181   8.628   0.806 -0.0670  0.1029 -0.3044
16701SOL    HW152097   2.227   8.614   0.889 -0.6386  0.8174  0.1395
16701SOL    HW252098   2.091   8.600   0.822 -0.2552  0.5254 -0.5923
16702SOL     OW52099   7.820   5.341   6.301  0.4321  0.0461  0.3252
16702SOL    HW152100   7.751   5.339   6.235  0.1720  0.0308  0.5943
16702SOL    HW252101   7.773   5.339   6.385  0.7701 -2.8855  0.5778
16703SOL     OW52102   0.304   6.178   4.556  0.6248  0.2436 -0.3141
16703SOL    HW152103   0.375   6.238   4.534  1.3721 -0.0694  1.1026
16703SOL    HW252104   0.297   6.121   4.480 -0.5198  2.4250 -1.9789
16704SOL     OW52105   1.002   6.816   0.530 -0.0035 -0.2763  0.1442
16704SOL    HW152106   1.063   6.745   0.550 -1.5087 -0.8771  3.1659
16704SOL    HW252107   0.934   6.776   0.476 -1.0021 -1.2905  2.0751
16705SOL     OW52108   1.474   0.771   4.088 -0.4330  0.1283 -0.4949
16705SOL    HW152109   1.458   0.754   4.181  0.4613 -0.8662 -0.5004
16705SOL    HW252110   1.553   0.720   4.068  0.9076  2.3716 -1.1870
16706SOL     OW52111   6.123   5.350   8.041 -0.0752  0.1212  0.1410
16706SOL    HW152112   6.186   5.297   7.991 -1.3228  0.2538 -1.6574
16706SOL    HW252113   6.061   5.285   8.076  1.4911 -0.1065  2.6884
16707SOL     OW52114   1.578   2.039   2.088  0.3444  0.2458  0.1287
16707SOL    HW152115   1.589   1.956   2.042 -1.5321  0.0014  0.0693
16707SOL    HW252116   1.486   2.061   2.077  0.4871  1.6135  1.3743
16708SOL     OW52117   3.385   2.704   2.814 -0.4816 -0.1745  0.0271
16708SOL    HW152118   3.329   2.737   2.884 -0.1983 -0.1707  0.2570
16708SOL    HW252119   3.429   2.628   2.853  1.2127  1.0137  0.5542
16709SOL     OW52120   4.599   5.950   8.885 -0.5082  0.1766 -0.1490
16709SOL    HW152121   4.611   6.036   8.844 -0.4455  0.0948 -0.3020
16709SOL    HW252122   4.656   5.891   8.835 -0.2483  0.1222  0.2070
16710SOL     OW52123   5.921   1.473   0.228  0.1551 -0.4654  0.2825
16710SOL    HW152124   5.857   1.544   0.224 -0.6022 -1.1956 -1.6774
16710SOL    HW252125   5.903   1.428   0.310 -2.2074 -0.9386 -0.4385
16711SOL     OW52126   0.583   7.109   0.169  0.3655 -0.0108 -0.2336
16711SOL    HW152127   0.608   7.200   0.154  1.5925 -0.1293  0.9221
16711SOL    HW252128   0.666   7.061   0.167 -0.0428 -0.8087  1.1245
16712SOL     OW52129   3.567   1.037   2.205  0.3535  0.0026 -0.1258
16712SOL    HW152130   3.599   1.100   2.268  1.1527 -2.0034  1.5895
16712SOL    HW252131   3.514   0.975   2.256 -0.9081 -0.4263 -1.8230
16713SOL     OW52132   5.747   5.315   8.103 -0.1099 -0.2359 -0.0357
16713SOL    HW152133   5.665   5.310   8.054 -0.6133 -3.0990  0.8990
16713SOL    HW252134   5.725   5.365   8.181 -1.0826 -1.1298  0.2973
16714SOL     OW52135   4.126   6.615   8.184  0.0470  0.3716  0.2298
16714SOL    HW152136   4.186   6.673   8.138  0.3065  0.0769  0.1940
16714SOL    HW252137   4.045   6.666   8.193  0.0776  0.5207 -0.3213
16715SOL     OW52138   6.082   7.419   2.798 -0.3054  0.3379  0.1341
16715SOL    HW152139   6.010   7.366   2.831 -0.4140 -0.5494 -1.4409
16715SOL    HW252140   6.040   7.496   2.759 -0.3681  0.1145 -0.2441
16716SOL     OW52141   6.216   4.069   6.700 -0.1426  0.5342  0.2815
16716SOL    HW152142   6.223   4.030   6.613 -1.5792 -0.5958  0.6279
16716SOL    HW252143   6.177   4.155   6.685 -0.6256  0.2389 -0.1706
16717SOL     OW52144   7.427   1.350   1.003 -0.9268  0.9963 -0.0453
16717SOL    HW152145   7.358   1.300   0.960 -1.2442  0.7451  0.7259
16717SOL    HW252146   7.452   1.296   1.078  1.8404 -0.1266 -1.6151
16718SOL     OW52147   3.778   0.272   2.303 -0.0837 -0.0470 -0.0715
16718SOL    HW152148   3.858   0.310   2.339  0.4849 -0.1548 -1.1772
16718SOL    HW252149   3.788   0.177   2.316  1.3262 -0.3446 -2.7383
16719SOL     OW52150   0.549   4.406   6.694 -0.5566 -0.0759  0.4663
16719SOL    HW152151   0.488   4.333   6.700  1.7869 -2.4125 -1.7976
16719SOL    HW252152   0.596   4.392   6.612 -0.3479  4.3623 -0.4043
16720SOL     OW52153   1.407   0.690   4.404 -0.1878 -0.2229  0.1367
16720SOL    HW152154   1.364   0.761   4.453 -0.9059 -0.2857 -0.3813
16720SOL    HW252155   1.376   0.610   4.445  0.0052 -0.2520  0.2241
16721SOL     OW52156   2.078   4.404   8.120  0.0721 -0.6296  0.7155
16721SOL    HW152157   2.069   4.310   8.102 -0.3879 -0.2821 -0.9827
16721SOL    HW252158   2.113   4.441   8.039  1.7310  0.4679  1.8610
16722SOL     OW52159   8.320   0.172   6.594 -0.5284  0.0123  0.1693
16722SOL    HW152160   8.260   0.210   6.531 -1.0702  1.7561  1.6505
16722SOL    HW252161   8.273   0.096   6.629 -0.0531 -1.2143 -1.7488
16723SOL     OW52162   7.580   6.446   0.882 -0.8877 -0.0274 -0.1805
16723SOL    HW152163   7.628   6.451   0.799  3.0811 -2.3107  1.6995
16723SOL    HW252164   7.596   6.530   0.924 -1.2799  0.4018 -0.8564
16724SOL     OW52165   8.018   5.267   4.640  0.4188 -0.8143  0.7587
16724SOL    HW152166   8.007   5.265   4.735  0.3458 -0.3989  0.7594
16724SOL    HW252167   8.101   5.314   4.626 -1.4954  2.8632  0.4958
16725SOL     OW52168   3.469   5.545   0.208 -0.1288 -0.0406  0.0488
16725SOL    HW152169   3.512   5.463   0.232  1.2146  0.5367 -0.2967
16725SOL    HW252170   3.444   5.585   0.292  1.1812  0.2026  0.3554
16726SOL     OW52171   6.359   3.772   0.123 -0.5766 -0.0678  0.7064
16726SOL    HW152172   6.311   3.702   0.080  2.6396 -0.7908 -2.1520
16726SOL    HW252173   6.414   3.728   0.187  1.2142 -0.2705 -0.8729
16727SOL     OW52174   7.869   1.782   4.960  0.0700  0.3894  0.2849
16727SOL    HW152175   7.881   1.703   5.013 -2.9254 -0.0400  0.5365
16727SOL    HW252176   7.853   1.852   5.024 -0.4746  0.5092  0.0295
16728SOL     OW52177   6.678   0.082   7.804  0.1076 -0.4508  0.4234
16728SOL    HW152178   6.666   0.123   7.890  0.5506  1.8529 -0.5556
16728SOL    HW252179   6.735   0.007   7.822  2.9796  1.8376  1.7689
16729SOL     OW52180   6.586   4.168   7.398 -0.1002 -0.4255 -0.3586
16729SOL    HW152181   6.607   4.145   7.308 -1.1532 -0.0470 -0.7231
16729SOL    HW252182   6.542   4.090   7.433  1.3106 -1.0004  0.2148
16730SOL     OW52183   2.177   0.102   8.606 -0.4659  0.5401  0.0071
16730SOL    HW152184   2.200   0.036   8.540 -0.5883 -0.2892  0.7790
16730SOL    HW252185   2.149   0.178   8.555 -1.5806 -0.4462 -0.9052
16731SOL     OW52186   7.806   6.746   2.102 -0.6026  0.2075  0.0780
16731SOL    HW152187   7.714   6.774   2.094  0.0454  2.5058 -0.0908
16731SOL    HW252188   7.854   6.807   2.046  1.0754 -0.7907  0.3722
16732SOL     OW52189   6.985   7.633   6.710 -0.1247 -0.0765  0.0333
16732SOL    HW152190   6.978   7.728   6.718  0.9915 -0.0851  1.3335
16732SOL    HW252191   7.051   7.619   6.642 -0.6816  0.0515 -0.5501
16733SOL     OW52192   6.801   3.012   1.095  0.7985  0.1422 -0.3229
16733SOL    HW152193   6.892   3.036   1.109  0.5696  1.6140 -1.1991
16733SOL    HW252194   6.774   3.061   1.017  0.1248 -2.6169 -1.9383
16734SOL     OW52195   2.177   1.055   8.060 -0.4328 -0.5394 -0.1359
16734SOL    HW152196   2.180   1.022   8.150  2.7468 -0.0308  0.0578
16734SOL    HW252197   2.155   1.148   8.069  0.4914 -0.3377  0.2404
16735SOL     OW52198   8.501   6.767   3.150 -0.2615 -0.4893 -0.1098
16735SOL    HW152199   8.408   6.746   3.158 -0.6540  1.5046  1.0902
16735SOL    HW252200   8.540   6.733   3.231 -0.3928  0.7266  0.4852
16736SOL     OW52201   1.814   1.379   3.323 -0.5283 -0.7397 -0.2901
16736SOL    HW152202   1.729   1.341   3.345 -0.4639 -0.4343  0.5097
16736SOL    HW252203   1.800   1.422   3.239 -1.7269  1.0302  0.7487
16737SOL     OW52204   0.666   8.830   4.489 -0.1158  0.2547  0.4235
16737SOL    HW152205   0.577   8.796   4.495 -0.1628  0.5491  1.4813
16737SOL    HW252206   0.693   8.811   4.399 -0.8903 -0.6993  0.3858
16738SOL     OW52207   7.921   3.958   5.581  0.1926 -0.2045 -0.7213
16738SOL    HW152208   7.828   3.968   5.560 -0.1136 -1.6590 -0.2202
16738SOL    HW252209   7.937   3.864   5.572  1.3504 -0.1203  0.2118
16739SOL     OW52210   7.740   1.657   4.235 -0.2179 -0.1779  0.8446
16739SOL    HW152211   7.742   1.648   4.330  0.0370 -1.5617  0.7366
16739SOL    HW252212   7.651   1.686   4.215 -0.6248 -0.9495  1.4457
16740SOL     OW52213   1.803   0.316   7.094  0.1666 -0.3866 -0.2460
16740SOL    HW152214   1.742   0.328   7.168  0.7426  0.8148  0.0573
16740SOL    HW252215   1.876   0.267   7.131  0.4496  0.2050 -0.0121
16741SOL     OW52216   4.381   4.560   7.296 -0.1038  0.3202 -0.2563
16741SOL    HW152217   4.414   4.648   7.277  0.6822  0.0264 -0.2950
16741SOL    HW252218   4.458   4.503   7.288 -0.1274 -0.0882  1.8998
16742SOL     OW52219   6.969   1.816   0.882  0.7604  0.3418  0.3078
16742SOL    HW152220   6.935   1.834   0.795  1.0888  0.8791  0.2843
16742SOL    HW252221   6.936   1.887   0.937  1.1449  0.4052  0.4635
16743SOL     OW52222   7.498   3.385   2.112  0.1641  0.5565 -0.0233
16743SOL    HW152223   7.469   3.378   2.021  1.3948  0.1011 -0.3979
16743SOL    HW252224   7.539   3.300   2.130 -0.3755  0.5115  1.0762
16744SOL     OW52225   7.847   5.687   1.857 -0.3301  0.0902  0.4565
16744SOL    HW152226   7.888   5.729   1.782 -1.1062 -1.0696 -0.6640
16744SOL    HW252227   7.880   5.597   1.854 -3.5885 -1.2050 -1.1040
16745SOL     OW52228   1.373   7.323   8.505  0.4259 -0.5106 -0.1458
16745SOL    HW152229   1.468   7.311   8.503  0.3900 -0.8840  0.2081
16745SOL    HW252230   1.340   7.243   8.547 -0.0587 -0.4770 -0.4566
16746SOL     OW52231   7.336   7.719   8.283  0.7577  0.2351  0.0454
16746SOL    HW152232   7.260   7.661   8.285 -0.0129  1.2093 -0.4103
16746SOL    HW252233   7.347   7.742   8.190 -0.7540  3.0886  0.4550
16747SOL     OW52234   4.828   1.417   4.738  0.9772 -0.3170 -0.3913
16747SOL    HW152235   4.833   1.352   4.667 -0.1127 -0.6287 -0.2004
16747SOL    HW252236   4.912   1.409   4.783  0.8233 -1.6948 -0.3004
16748SOL     OW52237   1.060   0.687   0.066  0.2027 -0.1440  0.4524
16748SOL    HW152238   1.039   0.661   0.155  0.1167  1.0380  0.7930
16748SOL    HW252239   0.998   0.639   0.011  0.0506 -0.6313  1.0403
16749SOL     OW52240   5.222   0.728   1.110  0.0731  0.3468 -0.7417
16749SOL    HW152241   5.133   0.723   1.076 -0.5208  2.6165  0.2612
16749SOL    HW252242   5.278   0.718   1.033 -1.0910  0.4482 -1.6350
16750SOL     OW52243   0.063   2.414   4.686  0.7346 -0.0309  0.0077
16750SOL    HW152244  -0.032   2.410   4.695  0.8671 -1.4259  1.0974
16750SOL    HW252245   0.082   2.363   4.607  0.6156 -0.2741  0.1357
16751SOL     OW52246   1.256   8.105   3.234  0.1436 -0.8469  0.4879
16751SOL    HW152247   1.215   8.045   3.296  0.5963 -1.3634  0.2920
16751SOL    HW252248   1.272   8.185   3.284 -2.2066 -0.1572  0.2768
16752SOL     OW52249   7.816   4.048   7.896  0.0832  0.4196  0.1079
16752SOL    HW152250   7.871   3.990   7.843 -0.5801 -2.7710  2.6185
16752SOL    HW252251   7.728   4.035   7.862  0.0806  0.8756 -0.0633
16753SOL     OW52252   0.766   3.026   0.820  0.0388 -0.1670  0.4083
16753SOL    HW152253   0.764   3.112   0.778 -0.0113 -0.7123 -0.7436
16753SOL    HW252254   0.812   2.970   0.757 -1.0113 -1.2654  0.5755
16754SOL     OW52255   7.858   0.249   0.613  0.1766  0.2994 -0.2279
16754SOL    HW152256   7.835   0.280   0.700 -4.4658 -1.2122 -0.6716
16754SOL    HW252257   7.936   0.195   0.627  0.7352  1.6485  2.5848
16755SOL     OW52258   3.766   0.568   5.792 -0.5796  0.7301 -0.5264
16755SOL    HW152259   3.836   0.525   5.841 -1.1577 -0.2204 -0.5154
16755SOL    HW252260   3.796   0.659   5.782  0.3599  0.4924  0.0182
16756SOL     OW52261   0.445   1.708   4.505 -0.6891 -0.1528 -0.0779
16756SOL    HW152262   0.443   1.754   4.588 -0.0798  1.5461 -0.9520
16756SOL    HW252263   0.355   1.678   4.491 -1.1227  0.8636  0.4914
16757SOL     OW52264   4.512   3.739   6.739 -0.1882 -0.4080  0.3352
16757SOL    HW152265   4.525   3.684   6.816  1.1072  0.3643  0.6933
16757SOL    HW252266   4.426   3.779   6.753  0.8466  1.2669  2.4097
16758SOL     OW52267   3.711   0.786   7.102 -0.3043  0.4605 -0.0884
16758SOL    HW152268   3.795   0.829   7.086 -0.0121  0.3530  1.0942
16758SOL    HW252269   3.664   0.844   7.162 -0.3001 -0.3759  0.7451
16759SOL     OW52270   7.845   4.527   2.814 -0.1273  0.3042 -0.1937
16759SOL    HW152271   7.843   4.454   2.875 -0.7227 -0.1260 -0.7058
16759SOL    HW252272   7.864   4.604   2.868 -0.7262 -0.0563  0.5438
16760SOL     OW52273   2.840   1.272   7.002  0.2685 -0.3109 -1.1216
16760SOL    HW152274   2.769   1.228   6.954  1.8817 -0.5797 -3.3966
16760SOL    HW252275   2.911   1.209   7.002  0.3757 -0.2946  1.7069
16761SOL     OW52276   4.513   4.892   0.781 -0.2980  0.3862 -0.0152
16761SOL    HW152277   4.526   4.897   0.875  0.0007 -0.4813  0.0002
16761SOL    HW252278   4.544   4.977   0.748  0.2243  0.4419  0.5975
16762SOL     OW52279   7.173   1.836   5.297 -0.2055  0.5387 -0.1571
16762SOL    HW152280   7.184   1.746   5.266  0.4890  1.3641 -2.5969
16762SOL    HW252281   7.099   1.832   5.357  1.3324 -2.0305  1.7994
16763SOL     OW52282   7.406   5.884   8.147 -0.1501 -0.1992  0.0301
16763SOL    HW152283   7.321   5.849   8.175 -0.8011  0.2263 -1.3122
16763SOL    HW252284   7.464   5.809   8.145 -1.4937 -1.3009 -2.7119
16764SOL     OW52285   3.294   4.621   5.364 -0.0321  0.0536 -0.4105
16764SOL    HW152286   3.379   4.644   5.328  2.5822 -1.0709  4.2781
16764SOL    HW252287   3.275   4.690   5.428 -0.9113 -1.3779  0.9651
16765SOL     OW52288   3.420   3.821   6.505  0.1766 -0.4516  0.1790
16765SOL    HW152289   3.408   3.912   6.533 -1.8190 -0.9413  1.0990
16765SOL    HW252290   3.332   3.789   6.490  0.7395 -2.6480  1.2228
16766SOL     OW52291   7.852   7.953   8.372  0.0138 -0.6345  0.8085
16766SOL    HW152292   7.764   7.976   8.344  0.0954  1.6867  2.2432
16766SOL    HW252293   7.841   7.910   8.457  0.1326 -2.8868 -0.2455
16767SOL     OW52294   6.463   5.019   5.023 -0.0664  0.0614  0.2472
16767SOL    HW152295   6.517   4.945   5.051 -0.2866  0.2099  1.0835
16767SOL    HW252296   6.376   4.998   5.055  0.0722  1.1610  1.4346
16768SOL     OW52297   8.755   2.767   3.468  0.0470  0.4216  0.1168
16768SOL    HW152298   8.675   2.817   3.455  0.3099  0.3883 -2.0325
16768SOL    HW252299   8.776   2.732   3.381  1.6388 -0.7186  0.9000
16769SOL     OW52300   3.143   2.165   5.589 -1.0011  0.1039 -0.0458
16769SOL    HW152301   3.196   2.152   5.510 -1.2145  1.2205 -0.3920
16769SOL    HW252302   3.147   2.081   5.634 -0.5056 -0.4184 -1.0195
16770SOL     OW52303   4.117   1.653   8.004 -0.0227  0.5110 -0.3344
16770SOL    HW152304   4.048   1.626   7.944 -0.9431 -0.7294  1.2062
16770SOL    HW252305   4.076   1.720   8.059  0.3914  0.6698 -0.2141
16771SOL     OW52306   4.878   4.229   1.185  0.7987  0.6583 -0.3664
16771SOL    HW152307   4.927   4.159   1.229 -0.6871 -0.5002 -0.4406
16771SOL    HW252308   4.922   4.240   1.101  1.6727  0.5360  0.0641
16772SOL     OW52309   8.108   6.228   1.293 -0.1589  0.1369  0.3023
16772SOL    HW152310   8.149   6.267   1.215 -0.0155 -0.3122  0.1517
16772SOL    HW252311   8.180   6.213   1.353 -0.2193  0.1171  0.3701
16773SOL     OW52312   2.276   1.565   6.080 -0.3122 -0.1783 -0.1215
16773SOL    HW152313   2.307   1.636   6.137 -0.7071 -0.1828  0.0986
16773SOL    HW252314   2.191   1.541   6.115 -0.9436  0.3871 -1.2280
16774SOL     OW52315   1.745   4.729   0.163 -0.3926 -0.0929  0.0420
16774SOL    HW152316   1.783   4.671   0.229 -1.7956  0.2876  1.2432
16774SOL    HW252317   1.659   4.751   0.198 -0.6142  1.2490 -1.2635
16775SOL     OW52318   7.519   7.131   7.929  0.1563 -0.2175 -0.2317
16775SOL    HW152319   7.451   7.071   7.961  1.2748 -0.6183  1.5559
16775SOL    HW252320   7.583   7.135   8.000  1.1962  1.4381 -1.1861
16776SOL     OW52321   8.431   7.002   6.494 -0.1359  0.2399  0.3854
16776SOL    HW152322   8.387   7.083   6.523  0.3446  0.8926 -0.6520
16776SOL    HW252323   8.522   7.014   6.520  0.1350  0.4776 -0.6410
16777SOL     OW52324   0.325   7.027   7.675 -0.3386 -0.0271  0.1109
16777SOL    HW152325   0.231   7.038   7.690 -0.3753 -0.1122 -0.0513
16777SOL    HW252326   0.348   6.951   7.729 -0.5440 -0.5614 -0.5344
16778SOL     OW52327   3.643   8.135   5.394 -0.3168 -0.1490 -0.7927
16778SOL    HW152328   3.665   8.223   5.426  0.5965 -0.3160 -0.9438
16778SOL    HW252329   3.713   8.113   5.333 -1.3044 -0.4053 -1.8818
16779SOL     OW52330   1.853   5.679   4.468 -0.3731 -0.3393  0.3030
16779SOL    HW152331   1.789   5.632   4.415  0.0340 -1.6206  0.8955
16779SOL    HW252332   1.853   5.632   4.552  1.7541 -0.7745  0.1195
16780SOL     OW52333   6.881   2.117   2.320 -0.4508 -0.2433  0.4275
16780SOL    HW152334   6.914   2.203   2.296  0.0154  0.0883  2.0972
16780SOL    HW252335   6.818   2.094   2.251 -1.1333  1.7475  0.3296
16781SOL     OW52336   5.032   5.345   6.035  0.1066  0.4788  0.7827
16781SOL    HW152337   5.040   5.305   5.948 -0.2365  0.1349  0.9072
16781SOL    HW252338   4.973   5.287   6.083 -0.9459  1.4641  0.7482
16782SOL     OW52339   8.164   6.115   6.357 -0.0427 -0.4169  0.4194
16782SOL    HW152340   8.143   6.196   6.311  0.7737 -0.2453  0.3404
16782SOL    HW252341   8.200   6.144   6.441  0.1440 -0.6951  0.4372
16783SOL     OW52342   2.015   4.535   0.046  0.1127  0.2213  0.0344
16783SOL    HW152343   1.928   4.500   0.023 -0.3911  2.0467 -1.0152
16783SOL    HW252344   2.056   4.554  -0.038  0.5686  1.6335  0.5542
16784SOL     OW52345   0.679   4.138   7.720 -0.2489 -0.0385 -0.0667
16784SOL    HW152346   0.624   4.176   7.789  2.1797  2.0381  0.8874
16784SOL    HW252347   0.745   4.088   7.768 -0.7726 -1.8733 -1.1547
16785SOL     OW52348   1.983   5.346   6.339  0.0937  0.2607 -0.0133
16785SOL    HW152349   2.058   5.380   6.290  0.5392  0.1275  0.5700
16785SOL    HW252350   2.013   5.342   6.430  0.0511 -1.6136 -0.0405
16786SOL     OW52351   4.381   6.918   4.102 -0.5960  0.7705 -0.5571
16786SOL    HW152352   4.416   6.960   4.023 -0.6589  1.4243 -0.2421
16786SOL    HW252353   4.413   6.972   4.174 -1.2220  0.6521 -0.1845
16787SOL     OW52354   2.679   5.673   4.142 -0.1560 -0.1041  0.4273
16787SOL    HW152355   2.765   5.630   4.141 -0.6379 -1.0886 -0.4888
16787SOL    HW252356   2.642   5.651   4.227  0.3538  0.0535  0.6999
16788SOL     OW52357   6.947   4.480   7.764  0.5762  0.0833  0.2496
16788SOL    HW152358   6.950   4.562   7.814  2.1482  1.1376 -1.4813
16788SOL    HW252359   6.926   4.413   7.830  1.2736  1.5751  2.0773
16789SOL     OW52360   3.327   5.215   6.396  0.3298 -0.4720 -0.2671
16789SOL    HW152361   3.395   5.170   6.345  1.1774  1.3673 -0.8772
16789SOL    HW252362   3.248   5.163   6.382  1.0331 -1.2305 -1.7194
16790SOL     OW52363   7.554   6.258   5.648  0.1526 -0.1601  0.0348
16790SOL    HW152364   7.608   6.266   5.727 -0.1592  1.0109  0.1449
16790SOL    HW252365   7.467   6.287   5.676 -0.7066 -2.4876 -0.0076
16791SOL     OW52366   5.549   8.485   0.245  0.7193  0.0499 -0.2337
16791SOL    HW152367   5.610   8.427   0.291 -0.6099 -0.2120  1.2976
16791SOL    HW252368   5.464   8.442   0.254  0.3086  0.2604 -2.5580
16792SOL     OW52369   0.444   1.681   6.095 -0.2052 -0.0168 -0.4973
16792SOL    HW152370   0.537   1.702   6.083  0.0709 -1.5736 -1.4508
16792SOL    HW252371   0.443   1.586   6.107 -1.7415 -0.0988 -1.0872
16793SOL     OW52372   8.334   8.568   5.011 -0.2833  0.0879 -0.4103
16793SOL    HW152373   8.252   8.609   5.035 -1.7663 -3.1033  0.5188
16793SOL    HW252374   8.352   8.506   5.081  2.3136 -0.1840 -1.1910
16794SOL     OW52375   1.359   8.301   0.173 -0.1976  0.2677 -0.8667
16794SOL    HW152376   1.264   8.310   0.174 -0.3287 -0.9617 -1.0538
16794SOL    HW252377   1.391   8.389   0.155 -1.2082  1.1723  1.4191
16795SOL     OW52378   0.315   4.866   7.610  0.6369  0.3979  0.8521
16795SOL    HW152379   0.256   4.807   7.562 -0.4681  0.4565  2.0906
16795SOL    HW252380   0.365   4.809   7.667 -0.4292  0.6110  2.0477
16796SOL     OW52381   8.552   1.621   6.359 -0.4616 -0.1217 -0.5244
16796SOL    HW152382   8.551   1.658   6.447  0.6950 -1.4228  0.0782
16796SOL    HW252383   8.478   1.561   6.358 -0.1354 -0.5389 -0.2197
16797SOL     OW52384   6.638   7.692   0.711  0.4483 -0.0059  0.3814
16797SOL    HW152385   6.581   7.623   0.677  1.1418 -0.9455  1.0712
16797SOL    HW252386   6.579   7.765   0.729 -0.5971 -1.0149  1.2698
16798SOL     OW52387   7.794   6.303   3.352  0.2787 -0.2108  0.2835
16798SOL    HW152388   7.779   6.388   3.312 -0.5590 -0.9474 -1.0295
16798SOL    HW252389   7.877   6.273   3.314 -0.2293 -0.6604 -0.4958
16799SOL     OW52390   8.192   2.995   1.719  0.2916  0.9287 -0.4632
16799SOL    HW152391   8.136   2.987   1.796  0.3496 -0.7862 -0.5464
16799SOL    HW252392   8.273   2.950   1.743  0.3911  0.5559 -1.4240
16800SOL     OW52393   5.288   6.666   1.176 -0.0322 -0.8351 -0.2278
16800SOL    HW152394   5.241   6.749   1.174 -0.8258 -1.2238  1.0141
16800SOL    HW252395   5.294   6.639   1.085 -1.4708 -0.3521 -0.4903
16801SOL     OW52396   4.542   3.506   7.292 -0.1492 -0.1773  0.0595
16801SOL    HW152397   4.501   3.476   7.211  0.5611 -0.3303 -0.2454
16801SOL    HW252398   4.549   3.426   7.345  1.1283 -0.4559 -0.4892
16802SOL     OW52399   3.216   2.762   3.029  0.4822  0.0265 -0.8855
16802SOL    HW152400   3.234   2.788   3.120 -1.3722  2.1568 -1.0561
16802SOL    HW252401   3.121   2.768   3.021  0.5615 -0.7551 -2.8190
16803SOL     OW52402   6.567   2.158   3.661  0.4705 -0.3816 -0.4554
16803SOL    HW152403   6.477   2.190   3.656  0.8367  0.4982 -1.7752
16803SOL    HW252404   6.590   2.168   3.753 -0.4950  0.1908 -0.2581
16804SOL     OW52405   8.022   8.172   7.779  0.4690  0.1342  0.0313
16804SOL    HW152406   7.974   8.238   7.828  1.6649  0.5671  0.6299
16804SOL    HW252407   7.985   8.177   7.691 -0.6333  0.4024  0.4910
16805SOL     OW52408   3.112   2.134   8.016  0.4609  0.3154  0.5374
16805SOL    HW152409   3.180   2.185   8.059  1.7624  0.4021 -1.4905
16805SOL    HW252410   3.151   2.108   7.932 -1.1468 -1.6806  0.3296
16806SOL     OW52411   3.751   0.765   4.210 -0.5577  0.0685  0.7471
16806SOL    HW152412   3.775   0.788   4.121 -0.6629 -1.2692  0.3568
16806SOL    HW252413   3.767   0.845   4.261  1.5833  0.1979 -0.0627
16807SOL     OW52414   1.523   8.244   0.620 -0.0340  0.0082  0.3371
16807SOL    HW152415   1.598   8.190   0.597  1.9951  3.5733 -2.4077
16807SOL    HW252416   1.448   8.197   0.584  1.4017 -1.6543 -0.6247
16808SOL     OW52417   4.482   0.733   2.801  0.1092 -0.2326 -0.0360
16808SOL    HW152418   4.478   0.638   2.816 -0.1491 -0.3168 -0.6172
16808SOL    HW252419   4.393   0.764   2.820  0.2895 -0.0437  0.5285
16809SOL     OW52420   1.474   4.126   8.497  0.0663 -0.2617 -0.3095
16809SOL    HW152421   1.433   4.056   8.549  2.3887 -1.8969 -0.4965
16809SOL    HW252422   1.558   4.142   8.541  1.1222 -0.1219 -2.2598
16810SOL     OW52423   3.775   4.101   8.533 -0.0621  0.3004  0.0261
16810SOL    HW152424   3.734   4.014   8.532 -1.5587  0.9716 -2.1376
16810SOL    HW252425   3.766   4.130   8.624  1.2431 -2.1107  1.0172
16811SOL     OW52426   8.761   2.578   2.879  0.4455  0.8202  0.2652
16811SOL    HW152427   8.736   2.486   2.880  1.0688  0.6382 -0.2813
16811SOL    HW252428   8.680   2.624   2.855  0.8060  0.1225 -2.7838
16812SOL     OW52429   2.952   7.588   2.098  0.2037 -0.4736  0.5120
16812SOL    HW152430   2.908   7.666   2.065 -0.8635 -1.6124 -0.8771
16812SOL    HW252431   3.023   7.622   2.153  0.7292  1.5080 -1.2586
16813SOL     OW52432   8.717   5.560   5.396 -0.2464 -0.6967  0.6226
16813SOL    HW152433   8.749   5.649   5.385 -0.0744 -0.7724  0.4978
16813SOL    HW252434   8.765   5.509   5.330 -0.5126 -0.8386  0.5360
16814SOL     OW52435   1.284   5.837   6.531  0.1246  0.1152  0.0396
16814SOL    HW152436   1.276   5.923   6.572 -1.2298  0.5546 -1.0834
16814SOL    HW252437   1.363   5.845   6.477 -0.5167  1.0014 -0.8098
16815SOL     OW52438   6.911   7.165   4.339  0.1226 -0.1968 -0.2444
16815SOL    HW152439   6.944   7.218   4.412  0.3671 -0.9225  0.1834
16815SOL    HW252440   6.821   7.194   4.326  0.5551  1.0124 -0.6679
16816SOL     OW52441   0.048   6.852   1.536 -0.1518  0.5069  0.3031
16816SOL    HW152442   0.047   6.874   1.443  2.2678  1.0881  0.3470
16816SOL    HW252443   0.061   6.935   1.581  0.4699  0.0306  1.0403
16817SOL     OW52444   3.495   4.145   8.690 -0.2637 -0.0839 -0.6655
16817SOL    HW152445   3.503   4.075   8.625 -2.5525  0.0441 -1.1710
16817SOL    HW252446   3.502   4.100   8.774 -2.1229 -1.0451 -0.9738
16818SOL     OW52447   6.855   5.311   8.883 -0.2136 -0.0396  0.3942
16818SOL    HW152448   6.879   5.316   8.975 -2.2431  1.6328  0.9145
16818SOL    HW252449   6.759   5.315   8.884 -0.2350  1.4905 -1.8380
16819SOL     OW52450   3.270   2.766   7.416 -0.0494  0.0194  0.1430
16819SOL    HW152451   3.204   2.833   7.398  0.1674 -0.0199 -0.8696
16819SOL    HW252452   3.223   2.698   7.463 -0.4156  0.5979  0.6258
16820SOL     OW52453   1.902   3.385   1.341 -0.0992 -0.0514  0.2383
16820SOL    HW152454   1.828   3.385   1.402  0.7587 -2.7447  1.4494
16820SOL    HW252455   1.872   3.336   1.265  0.1884 -0.5153  0.4177
16821SOL     OW52456   6.698   5.535   3.522  0.2433  0.0336  0.0116
16821SOL    HW152457   6.710   5.630   3.513 -1.1899  0.1582 -1.1010
16821SOL    HW252458   6.671   5.523   3.613 -1.0023  0.9096 -0.2099
16822SOL     OW52459   5.568   1.279   1.468  0.3489 -0.1013 -0.1409
16822SOL    HW152460   5.501   1.281   1.399  0.4247 -0.9976 -0.2451
16822SOL    HW252461   5.632   1.344   1.439 -0.7133  1.1754  0.2345
16823SOL     OW52462   4.724   3.006   2.609 -0.7189 -0.5321 -0.2406
16823SOL    HW152463   4.727   2.989   2.515  0.5956 -2.1158  0.0299
16823SOL    HW252464   4.809   3.047   2.628 -0.6295 -0.9697  0.3493
16824SOL     OW52465   2.922   6.926   7.543 -0.3229  0.5757  0.1538
16824SOL    HW152466   2.838   6.891   7.512  0.3162 -0.5015 -0.4389
16824SOL    HW252467   2.957   6.973   7.468 -1.1406  2.5158  0.9259
16825SOL     OW52468   8.448   2.326   5.385 -0.6945 -0.2106 -0.3985
16825SOL    HW152469   8.353   2.330   5.393 -1.1079 -3.1200 -2.3938
16825SOL    HW252470   8.469   2.233   5.384  2.3378  0.3095  0.9317
16826SOL     OW52471   1.039   2.513   4.576 -0.0740 -0.3171 -0.2415
16826SOL    HW152472   1.090   2.544   4.501 -0.7757  1.4542 -0.0387
16826SOL    HW252473   1.013   2.593   4.621 -2.4496 -1.1869  0.0403
16827SOL     OW52474   6.474   1.564   0.073 -0.5661 -0.1529 -0.0959
16827SOL    HW152475   6.422   1.533  -0.001 -1.6379  1.5191 -0.1005
16827SOL    HW252476   6.410   1.575   0.144 -0.1786  1.5198  0.0328
16828SOL     OW52477   7.959   8.279   2.765  0.0151 -0.3466  0.4628
16828SOL    HW152478   7.960   8.368   2.728  0.7034 -0.1185  1.0004
16828SOL    HW252479   7.927   8.224   2.693 -1.4464  0.4651  0.4479
16829SOL     OW52480   4.094   7.171   8.391 -0.5455  0.1493 -0.4489
16829SOL    HW152481   4.058   7.104   8.333  0.5866 -2.1417  1.3451
16829SOL    HW252482   4.186   7.178   8.365 -0.0349 -0.8867  0.9910
16830SOL     OW52483   1.024   2.861   5.472  0.2770  0.4361  0.3057
16830SOL    HW152484   0.951   2.901   5.518 -1.1771 -2.2262  0.4740
16830SOL    HW252485   1.019   2.768   5.493  2.0904 -0.2573 -1.8641
16831SOL     OW52486   1.187   4.011   0.057  0.0450  0.3258  0.1292
16831SOL    HW152487   1.258   4.010   0.121  1.3421  1.4100 -1.2072
16831SOL    HW252488   1.129   3.940   0.084  0.9879  0.1850  1.9707
16832SOL     OW52489   6.936   1.891   8.223  0.2836  0.4473 -0.1718
16832SOL    HW152490   6.986   1.814   8.194  0.9970  2.2096 -4.3829
16832SOL    HW252491   7.003   1.950   8.258  0.0230  0.0243  1.0903
16833SOL     OW52492   8.483   5.265   7.881  0.6817  0.9261  0.6232
16833SOL    HW152493   8.573   5.231   7.883  0.2855 -0.7235 -2.2580
16833SOL    HW252494   8.486   5.336   7.817  0.0904  1.3532  1.0665
16834SOL     OW52495   5.582   7.651   8.405  0.3247  0.1205  0.3133
16834SOL    HW152496   5.609   7.722   8.461 -1.0784 -0.2660  1.5459
16834SOL    HW252497   5.528   7.692   8.337  2.9886  0.7570 -1.5958
16835SOL     OW52498   8.340   5.086   0.742  0.0075 -0.2953  0.5657
16835SOL    HW152499   8.287   5.017   0.782 -0.4395 -0.5616 -0.4524
16835SOL    HW252500   8.376   5.047   0.663  2.0060 -0.2145  1.3669
16836SOL     OW52501   8.312   6.626   0.152  0.2496  0.3180 -0.0660
16836SOL    HW152502   8.261   6.586   0.221  0.8604  1.9515  1.4050
16836SOL    HW252503   8.403   6.615   0.179  0.7160 -1.6408 -2.1346
16837SOL     OW52504   8.721   4.462   1.493  0.4275  0.2881 -0.0521
16837SOL    HW152505   8.703   4.483   1.402 -2.2255 -1.1341  0.0575
16837SOL    HW252506   8.666   4.387   1.513  2.7302 -1.0173  2.0903
16838SOL     OW52507   0.480   6.303   0.192 -0.3004 -0.6758 -0.0397
16838SOL    HW152508   0.510   6.242   0.124 -2.2607 -2.9667  0.9859
16838SOL    HW252509   0.475   6.250   0.271  0.9780  1.6846  1.7348
16839SOL     OW52510   1.525   0.552   3.448 -0.3387 -0.4619  0.0536
16839SOL    HW152511   1.614   0.516   3.452 -0.1386 -0.0013 -0.1271
16839SOL    HW252512   1.468   0.476   3.459  0.0614 -0.4916  2.4565
16840SOL     OW52513   7.083   4.195   6.670 -0.4523  0.0737 -0.1303
16840SOL    HW152514   7.113   4.197   6.761  0.7746  1.2299 -0.5224
16840SOL    HW252515   7.048   4.107   6.658 -0.3985 -0.1789  1.3860
16841SOL     OW52516   5.267   5.398   6.810  0.1885  0.2158 -0.3774
16841SOL    HW152517   5.192   5.364   6.859  1.3865  0.0815  1.4416
16841SOL    HW252518   5.228   5.457   6.745 -1.6319 -1.6414 -1.0694
16842SOL     OW52519   4.234   6.794   6.252  0.5474 -0.5236  0.0981
16842SOL    HW152520   4.328   6.799   6.268  0.8645  0.0436 -1.7370
16842SOL    HW252521   4.225   6.736   6.176 -0.5187 -0.0181 -0.1805
16843SOL     OW52522   7.420   5.323   6.621  0.2973 -0.7485 -1.1801
16843SOL    HW152523   7.427   5.413   6.590 -1.8886 -1.0540 -2.7582
16843SOL    HW252524   7.433   5.330   6.716 -2.3406  1.6650 -0.8569
16844SOL     OW52525   1.028   7.253   8.027 -0.3399  0.0777 -0.2560
16844SOL    HW152526   1.110   7.205   8.037 -1.3632 -2.0183 -1.3396
16844SOL    HW252527   0.996   7.266   8.116  0.7189  0.1727  0.1247
16845SOL     OW52528   0.612   7.364   6.671  0.1673  0.3404  0.1819
16845SOL    HW152529   0.604   7.286   6.727 -0.9413  1.7966  2.1790
16845SOL    HW252530   0.627   7.329   6.583  0.2322 -2.1081  1.0905
16846SOL     OW52531   2.551   0.320   4.205 -0.0842 -0.0152  0.8057
16846SOL    HW152532   2.462   0.309   4.241 -0.2459 -0.3431  0.3115
16846SOL    HW252533   2.585   0.231   4.198  0.1035  0.0760  0.5430
16847SOL     OW52534   0.279   7.718   6.722 -0.1385  0.5514  0.6951
16847SOL    HW152535   0.277   7.737   6.816  0.8905 -0.5002  0.9733
16847SOL    HW252536   0.351   7.654   6.713 -2.1285 -1.6906 -0.3639
16848SOL     OW52537   3.862   6.763   8.004  0.0153  0.2601 -0.3587
16848SOL    HW152538   3.923   6.830   8.036  0.5865 -0.6194  0.4319
16848SOL    HW252539   3.838   6.713   8.082 -1.3146  0.2551 -0.7527
16849SOL     OW52540   1.286   0.140   2.779 -0.4891  0.0998 -0.0781
16849SOL    HW152541   1.298   0.115   2.687  0.7468 -0.3647  0.1867
16849SOL    HW252542   1.230   0.217   2.776 -1.4631 -0.6245 -1.1448
16850SOL     OW52543   6.727   4.541   1.110 -0.1566  0.2432  0.2940
16850SOL    HW152544   6.726   4.446   1.094 -3.2225  0.2424 -0.0621
16850SOL    HW252545   6.783   4.576   1.040  0.1796 -1.2030 -0.2103
16851SOL     OW52546   7.426   3.634   7.419 -0.1969  0.4665 -0.1564
16851SOL    HW152547   7.520   3.614   7.428 -0.3627 -1.1399 -1.4954
16851SOL    HW252548   7.424   3.711   7.362  0.3097  0.8207  0.2857
16852SOL     OW52549   8.135   4.675   5.298  0.5599 -0.0325 -0.1102
16852SOL    HW152550   8.070   4.604   5.296 -0.2158  0.6515  0.1360
16852SOL    HW252551   8.086   4.751   5.329  1.3884  0.6064 -0.3348
16853SOL     OW52552   0.862   6.118   1.530 -0.1744 -0.1039  0.2099
16853SOL    HW152553   0.898   6.194   1.576  0.3903  0.2364 -0.7503
16853SOL    HW252554   0.773   6.110   1.563 -0.1913  0.8765  0.4487
16854SOL     OW52555   8.170   5.944   2.571  0.3956 -0.2384  0.4690
16854SOL    HW152556   8.232   6.015   2.585  0.9224 -0.8402  1.2363
16854SOL    HW252557   8.092   5.987   2.535  0.7995  0.6848  0.6777
16855SOL     OW52558   1.132   5.032   4.409  0.0212  0.1425 -0.3606
16855SOL    HW152559   1.209   5.000   4.362 -0.0323 -0.1542 -0.2492
16855SOL    HW252560   1.141   4.996   4.497  1.1061  2.2283  0.4482
16856SOL     OW52561   2.406   7.070   5.110 -0.0945 -0.5226 -0.2534
16856SOL    HW152562   2.323   7.046   5.070 -0.2892 -1.4262  0.6819
16856SOL    HW252563   2.470   7.010   5.070 -0.1694 -0.9430  0.2585
16857SOL     OW52564   2.609   7.613   4.500  0.4758 -0.0510  0.1970
16857SOL    HW152565   2.664   7.583   4.429 -0.5273 -0.2463 -0.5239
16857SOL    HW252566   2.609   7.708   4.492  1.9822  0.0730  1.2063
16858SOL     OW52567   5.825   1.211   3.085  0.3430  0.7537 -0.0396
16858SOL    HW152568   5.817   1.289   3.030 -0.7160  1.4491  1.0517
16858SOL    HW252569   5.777   1.144   3.037 -0.1484  1.2105 -0.1987
16859SOL     OW52570   4.627   8.342   6.977 -0.2951  0.0534 -0.1490
16859SOL    HW152571   4.647   8.324   7.069 -1.6422 -0.3962  0.0821
16859SOL    HW252572   4.711   8.367   6.938  0.2735  0.3779  1.2274
16860SOL     OW52573   4.377   1.634   8.121  0.9908  0.6081  0.5011
16860SOL    HW152574   4.341   1.691   8.053 -0.6011 -0.6441  0.2262
16860SOL    HW252575   4.429   1.692   8.176 -1.9686  2.7929  1.2945
16861SOL     OW52576   1.107   2.174   1.861 -0.0624  1.1988  0.3239
16861SOL    HW152577   1.055   2.248   1.892  1.4102  2.4108 -0.0386
16861SOL    HW252578   1.041   2.109   1.835 -1.4416  2.9521 -0.8281
16862SOL     OW52579   6.361   7.550   2.050 -0.2382 -0.5518 -0.4771
16862SOL    HW152580   6.296   7.605   2.005 -0.1809  1.2441  1.4971
16862SOL    HW252581   6.445   7.589   2.026 -0.1662 -0.0755  0.5210
16863SOL     OW52582   2.687   1.921   0.772  0.0053 -0.0954 -0.1109
16863SOL    HW152583   2.645   1.885   0.694  1.8026 -1.4734 -0.5125
16863SOL    HW252584   2.629   1.991   0.801 -0.7264  0.4520 -2.6754
16864SOL     OW52585   2.875   8.631   1.443  0.1697 -0.4368 -0.3388
16864SOL    HW152586   2.963   8.637   1.479  0.8360 -0.7592 -1.8299
16864SOL    HW252587   2.876   8.552   1.389 -1.1496 -0.6504 -0.0898
16865SOL     OW52588   5.126   3.904   4.560  0.2167 -0.2939  0.7395
16865SOL    HW152589   5.090   3.983   4.520 -1.1848 -0.1670  2.2038
16865SOL    HW252590   5.217   3.927   4.581  0.5294  0.1303 -0.9188
16866SOL     OW52591   1.940   7.365   1.864  0.0082 -0.2969  0.3099
16866SOL    HW152592   1.942   7.457   1.837  0.4228 -0.7901 -1.4432
16866SOL    HW252593   1.903   7.367   1.952 -2.6471  1.3037 -0.7290
16867SOL     OW52594   8.851   3.868   2.981  0.0312  0.0518  0.7978
16867SOL    HW152595   8.784   3.856   2.914  1.5223  0.1553 -0.7668
16867SOL    HW252596   8.813   3.932   3.042 -0.4927  1.7959 -1.2276
16868SOL     OW52597   1.062   0.455   5.210  0.4302  0.1637 -0.5121
16868SOL    HW152598   1.039   0.415   5.294  0.8113  0.2423 -0.3716
16868SOL    HW252599   1.148   0.420   5.189  1.3136  1.8180  0.1892
16869SOL     OW52600   0.062   1.848   3.646  0.1184  0.8705  0.2642
16869SOL    HW152601   0.083   1.941   3.659 -0.1892  0.7780  1.6124
16869SOL    HW252602   0.031   1.819   3.732  0.5419 -0.5719 -0.0493
16870SOL     OW52603   2.704   1.396   3.340  0.1687  0.2013 -0.1962
16870SOL    HW152604   2.740   1.430   3.422  0.8738  2.2126 -1.2605
16870SOL    HW252605   2.781   1.388   3.283 -0.3022 -1.2257 -0.6704
16871SOL     OW52606   1.713   8.376   5.608  0.3378  0.3464 -0.5617
16871SOL    HW152607   1.781   8.313   5.633 -0.0196  0.7565  1.7529
16871SOL    HW252608   1.718   8.443   5.676 -1.8056  0.8444 -0.8304
16872SOL     OW52609   4.720   5.101   5.279  0.8474  0.0442 -0.3197
16872SOL    HW152610   4.794   5.160   5.271  0.6608  0.0727 -2.2773
16872SOL    HW252611   4.757   5.014   5.262  0.3039  0.1712 -2.3916
16873SOL     OW52612   5.539   2.451   2.119  0.3861  0.0990  0.2178
16873SOL    HW152613   5.622   2.448   2.166 -0.3093 -0.4126  1.4543
16873SOL    HW252614   5.508   2.540   2.131  1.1774  0.5883 -1.0687
16874SOL     OW52615   2.981   8.640   4.069  0.4498  0.2555  0.3341
16874SOL    HW152616   3.023   8.554   4.071  1.6883  0.8580  1.5586
16874SOL    HW252617   3.053   8.702   4.078 -0.3732  1.4733 -0.9675
16875SOL     OW52618   5.451   5.939   3.058 -0.3101 -0.1728  0.4799
16875SOL    HW152619   5.497   5.906   2.981 -1.2187 -0.4294  0.0290
16875SOL    HW252620   5.359   5.918   3.042 -1.0506  2.8503 -0.0122
16876SOL     OW52621   6.122   1.736   1.159  0.3497 -0.5822  0.4044
16876SOL    HW152622   6.081   1.818   1.133 -1.7833 -0.9527  2.3465
16876SOL    HW252623   6.123   1.738   1.255  0.2429 -2.8182  0.5105
16877SOL     OW52624   3.906   8.715   3.374 -0.5956  0.1437  0.5069
16877SOL    HW152625   3.820   8.757   3.375 -0.2259  0.9291  0.0587
16877SOL    HW252626   3.911   8.670   3.459 -1.5517 -0.1486  0.4252
16878SOL     OW52627   8.848   5.466   5.166 -0.4112 -0.4843 -0.0151
16878SOL    HW152628   8.806   5.494   5.085 -1.5312  0.7525  0.9452
16878SOL    HW252629   8.899   5.389   5.142 -0.7412 -0.1533 -1.8743
16879SOL     OW52630   8.889   8.066   7.914 -0.4283 -0.0698  0.3962
16879SOL    HW152631   8.966   8.010   7.900 -0.1296  0.7009 -1.2149
16879SOL    HW252632   8.925   8.148   7.947 -0.5773  0.2259 -0.1769
16880SOL     OW52633   7.486   8.469   0.926  0.1845 -0.0254  0.8537
16880SOL    HW152634   7.407   8.454   0.875 -0.0863 -0.2969  1.3401
16880SOL    HW252635   7.548   8.507   0.864 -0.3742  0.3276  0.5034
16881SOL     OW52636   1.111   1.142   3.369 -0.8140  0.3096 -0.2194
16881SOL    HW152637   1.085   1.054   3.395 -0.9191 -0.2312 -2.0737
16881SOL    HW252638   1.034   1.196   3.388 -1.2999 -0.2728 -0.5325
16882SOL     OW52639   6.962   3.312   4.752 -0.0513  0.3065  1.1337
16882SOL    HW152640   6.995   3.274   4.671  2.2635  2.0252  1.1953
16882SOL    HW252641   6.900   3.379   4.723 -0.0416  0.1863  0.8279
16883SOL     OW52642   1.890   8.650   1.706  0.1203 -0.1697  0.3939
16883SOL    HW152643   1.973   8.697   1.709  0.6565 -0.7515 -2.3055
16883SOL    HW252644   1.911   8.561   1.733 -0.6389  0.6169  4.1894
16884SOL     OW52645   1.523   3.974   6.899 -0.0685  0.8764  0.2209
16884SOL    HW152646   1.521   4.051   6.843 -1.2020  1.0470  0.4814
16884SOL    HW252647   1.469   3.997   6.975  0.1324  0.0678  0.6231
16885SOL     OW52648   2.591   4.346   5.589 -0.3442 -0.1286  0.1891
16885SOL    HW152649   2.631   4.273   5.541  0.7213  1.5393 -1.5769
16885SOL    HW252650   2.523   4.379   5.530 -0.5881  0.5233  0.8223
16886SOL     OW52651   6.313   3.739   0.458  0.6202 -0.2731 -0.2726
16886SOL    HW152652   6.243   3.684   0.494  1.4827 -0.8572  0.5545
16886SOL    HW252653   6.355   3.683   0.393  0.5862 -0.0699 -0.4695
16887SOL     OW52654   8.259   3.215   5.710  0.0730  0.1088  0.8840
16887SOL    HW152655   8.235   3.291   5.762 -2.1878 -0.6263  1.0033
16887SOL    HW252656   8.224   3.232   5.623 -0.7403 -0.8873  0.9915
16888SOL     OW52657   0.019   4.721   0.276  0.7040  0.2185 -0.2591
16888SOL    HW152658   0.046   4.794   0.333  2.3863 -0.3044 -0.3367
16888SOL    HW252659   0.098   4.670   0.263  0.1512 -0.2141 -2.3227
16889SOL     OW52660   8.089   4.130   1.724  0.3974  0.4675  0.0285
16889SOL    HW152661   8.073   4.214   1.767  1.3558  0.3688  0.5940
16889SOL    HW252662   8.003   4.105   1.688  0.0958  1.6688 -0.1338
16890SOL     OW52663   4.510   0.316   6.049  0.3017 -0.2592 -0.0731
16890SOL    HW152664   4.486   0.395   6.001  0.9524 -0.1664 -0.2640
16890SOL    HW252665   4.438   0.255   6.032  0.1475  0.0404 -0.5325
16891SOL     OW52666   5.573   8.212   2.390  0.3139 -0.2461 -0.2326
16891SOL    HW152667   5.668   8.209   2.398  0.3112  1.4039  1.0511
16891SOL    HW252668   5.554   8.302   2.361 -0.8413 -0.5718 -0.5398
16892SOL     OW52669   7.482   6.806   5.138  0.1869 -0.2874 -0.0955
16892SOL    HW152670   7.541   6.881   5.124  0.3404 -0.4823 -0.5140
16892SOL    HW252671   7.426   6.833   5.210  0.5251  0.0645  0.0418
16893SOL     OW52672   1.343   8.158   7.933 -0.0359  0.3089 -0.1615
16893SOL    HW152673   1.379   8.117   7.854 -2.4364 -0.9893 -0.6576
16893SOL    HW252674   1.356   8.252   7.919  0.7910  0.0287 -1.4630
16894SOL     OW52675   7.514   1.730   1.115 -0.2219  0.0128  0.6582
16894SOL    HW152676   7.419   1.725   1.116 -0.4219  1.6844 -1.4192
16894SOL    HW252677   7.541   1.676   1.041  0.1319  1.8740 -0.6557
16895SOL     OW52678   3.199   6.329   4.560 -0.0123  0.5651 -0.5963
16895SOL    HW152679   3.208   6.265   4.490  0.0939 -0.8288  0.6406
16895SOL    HW252680   3.105   6.336   4.575  0.0296 -1.2640  0.9310
16896SOL     OW52681   3.536   0.030   3.107 -0.4435  0.7018 -0.7453
16896SOL    HW152682   3.574   0.094   3.167 -0.2633  0.0167 -0.1075
16896SOL    HW252683   3.545   0.069   3.021 -0.5543  1.6374 -0.3440
16897SOL     OW52684   2.769   2.499   7.460  0.6654  0.2511  0.5982
16897SOL    HW152685   2.848   2.457   7.494  0.7616 -0.6628 -0.6862
16897SOL    HW252686   2.699   2.467   7.516  0.5611 -2.6182 -0.9986
16898SOL     OW52687   1.268   3.648   5.292 -0.0557 -0.2640 -0.2628
16898SOL    HW152688   1.266   3.561   5.333 -2.3215  0.3584  1.1699
16898SOL    HW252689   1.215   3.638   5.213  1.5506 -0.6664 -1.3330
16899SOL     OW52690   4.172   7.327   2.357  0.0974 -0.5071 -0.1438
16899SOL    HW152691   4.210   7.383   2.289 -0.5257 -0.5535 -0.5406
16899SOL    HW252692   4.145   7.248   2.310  0.4060 -0.8833  0.3054
16900SOL     OW52693   0.558   1.507   0.007  0.2678 -0.0005 -0.1252
16900SOL    HW152694   0.571   1.464  -0.078 -2.6205 -2.1855  0.3865
16900SOL    HW252695   0.482   1.563  -0.005  0.1619  0.0916  0.8695
16901SOL     OW52696   4.715   0.256   6.759  0.0739  0.1321  0.3374
16901SOL    HW152697   4.665   0.196   6.703 -0.4127  0.6892  0.1602
16901SOL    HW252698   4.651   0.287   6.823  0.8363 -1.2105  1.8138
16902SOL     OW52699   2.812   7.402   2.245  0.6778 -0.2015 -0.1273
16902SOL    HW152700   2.835   7.472   2.307  1.9241 -0.6266 -0.0925
16902SOL    HW252701   2.863   7.421   2.167  0.4989 -0.6949 -0.3701
16903SOL     OW52702   7.073   3.361   3.416 -0.2427  0.2906  0.1067
16903SOL    HW152703   7.046   3.297   3.351 -0.0071  0.2768  0.0208
16903SOL    HW252704   6.994   3.378   3.468  0.6296 -3.4398  3.0396
16904SOL     OW52705   0.799   5.964   4.239 -0.9611 -0.1131  0.0013
16904SOL    HW152706   0.729   5.910   4.276  0.0779 -1.4111  0.1366
16904SOL    HW252707   0.845   5.905   4.178  0.6506  0.3786  0.6861
16905SOL     OW52708   7.800   2.575   2.352  0.0786  0.1702  0.0196
16905SOL    HW152709   7.714   2.566   2.311 -0.3390  0.1442  0.8678
16905SOL    HW252710   7.856   2.610   2.284  0.0016 -2.0552 -1.2836
16906SOL     OW52711   6.427   4.622   4.453 -0.6774 -0.1903 -0.1122
16906SOL    HW152712   6.451   4.635   4.545 -1.3842 -0.4314  0.1091
16906SOL    HW252713   6.497   4.567   4.418  1.3716  2.5150 -0.5820
16907SOL     OW52714   2.879   4.819   1.225 -0.6139  0.1778 -0.1237
16907SOL    HW152715   2.948   4.862   1.276 -0.5957  0.2526 -0.2121
16907SOL    HW252716   2.910   4.823   1.135 -0.1809 -0.8268 -0.0310
16908SOL     OW52717   7.779   1.209   7.089 -0.0564  0.2240  0.2938
16908SOL    HW152718   7.835   1.147   7.134 -0.0205 -1.7491 -2.2366
16908SOL    HW252719   7.695   1.203   7.134  0.4513 -0.2752  1.2081
16909SOL     OW52720   4.631   0.282   1.413  0.2745 -0.1223 -0.9388
16909SOL    HW152721   4.647   0.192   1.386 -0.1678 -0.4496 -0.1481
16909SOL    HW252722   4.654   0.335   1.337  3.7801 -0.6268 -0.3744
16910SOL     OW52723   6.987   2.923   7.151 -0.4651  0.1563 -0.1124
16910SOL    HW152724   7.028   2.999   7.190  2.3309 -0.3652 -1.7722
16910SOL    HW252725   6.925   2.892   7.217  1.5439  1.2401  2.4214
16911SOL     OW52726   8.613   5.829   3.785  0.1778  0.5126 -0.6196
16911SOL    HW152727   8.518   5.842   3.795  0.2269  0.3162  0.2438
16911SOL    HW252728   8.639   5.892   3.718 -0.6230  0.3057 -1.1433
16912SOL     OW52729   6.943   6.709   0.738  0.7051  0.2373 -0.2123
16912SOL    HW152730   6.870   6.687   0.681  2.1222 -0.0563 -2.0135
16912SOL    HW252731   6.984   6.625   0.758  1.1969  0.4884 -0.1468
16913SOL     OW52732   4.502   6.117   4.785  0.2803 -0.0466 -0.1454
16913SOL    HW152733   4.536   6.028   4.786  1.8472  0.4729 -1.2351
16913SOL    HW252734   4.501   6.141   4.692 -2.6378  0.2003 -0.1219
16914SOL     OW52735   3.202   0.053   6.494 -0.1731  0.2102  0.3624
16914SOL    HW152736   3.193   0.032   6.587  0.1033 -0.3826  0.2592
16914SOL    HW252737   3.174   0.144   6.488  1.1036  0.6970  1.2519
16915SOL     OW52738   4.798   0.227   8.733  0.8117  0.2556  0.0740
16915SOL    HW152739   4.829   0.209   8.822  1.8142  2.9172  0.3697
16915SOL    HW252740   4.756   0.313   8.740 -0.4453 -0.1610 -1.7598
16916SOL     OW52741   3.316   0.591   0.818 -0.3126 -0.3748 -0.3887
16916SOL    HW152742   3.318   0.662   0.753 -0.5106  0.5081  0.5445
16916SOL    HW252743   3.408   0.573   0.836 -0.2426 -0.9778 -1.2672
16917SOL     OW52744   6.472   1.738   2.223 -0.6503 -0.2192 -0.0981
16917SOL    HW152745   6.412   1.683   2.172  1.1510 -2.2898 -0.1184
16917SOL    HW252746   6.463   1.706   2.312  0.3730 -0.5064 -0.0943
16918SOL     OW52747   6.374   6.288   7.670 -0.3532  0.0874 -0.5963
16918SOL    HW152748   6.303   6.271   7.731  0.1562  0.8669  0.2430
16918SOL    HW252749   6.403   6.201   7.642 -0.8040 -0.2701  0.0243
16919SOL     OW52750   7.965   8.540   1.158 -0.0983  0.4092  0.6491
16919SOL    HW152751   8.039   8.578   1.110  1.0324  1.1670  2.8533
16919SOL    HW252752   8.003   8.470   1.211 -1.5128 -1.2123 -0.3527
16920SOL     OW52753   5.960   0.664   4.066  0.8535  0.3875  0.3557
16920SOL    HW152754   5.958   0.570   4.083  1.8454  0.3541  0.3982
16920SOL    HW252755   6.001   0.701   4.144  0.0915  0.9066  0.5145
16921SOL     OW52756   3.543   7.612   4.951  0.4408  0.4594  0.3531
16921SOL    HW152757   3.582   7.608   4.864 -1.2758 -1.2994 -0.4230
16921SOL    HW252758   3.456   7.651   4.938 -0.0908 -0.4032  1.1379
16922SOL     OW52759   0.456   7.464   7.349 -0.3368  0.3285 -0.3055
16922SOL    HW152760   0.495   7.511   7.423 -1.8736 -2.2201  2.3636
16922SOL    HW252761   0.526   7.405   7.320 -0.7999 -1.4232  1.8443
16923SOL     OW52762   7.443   0.746   7.175  0.2303 -0.1261  0.5311
16923SOL    HW152763   7.462   0.757   7.268  1.2309 -1.2427  0.4634
16923SOL    HW252764   7.461   0.832   7.137  0.3579  0.1790  1.2649
16924SOL     OW52765   2.314   5.303   7.854  0.1157 -0.3096 -0.4938
16924SOL    HW152766   2.344   5.316   7.764  1.1735 -0.5383 -0.1876
16924SOL    HW252767   2.325   5.209   7.870 -0.9625 -0.4339 -0.4331
16925SOL     OW52768   5.152   1.739   7.767  0.2776  0.1377  0.6753
16925SOL    HW152769   5.127   1.830   7.747  1.6890 -0.2389 -3.9903
16925SOL    HW252770   5.248   1.740   7.763  0.2819 -1.7205 -0.6232
16926SOL     OW52771   4.806   6.827   6.163 -0.5595  0.1404  0.6857
16926SOL    HW152772   4.785   6.818   6.256  0.3119  0.4227  0.9153
16926SOL    HW252773   4.901   6.838   6.160 -0.7217  1.5322 -0.1259
16927SOL     OW52774   8.243   4.697   8.080  0.5611 -0.2471 -0.0586
16927SOL    HW152775   8.276   4.618   8.037 -2.3001 -1.4710 -0.2444
16927SOL    HW252776   8.245   4.764   8.012  1.9740 -0.4379 -0.2276
16928SOL     OW52777   1.348   5.383   0.692 -0.2609  0.4197 -0.1446
16928SOL    HW152778   1.293   5.306   0.679 -1.3015  1.0614  0.3220
16928SOL    HW252779   1.332   5.438   0.616 -0.2216  0.5761 -0.0415
16929SOL     OW52780   4.754   5.418   5.818 -0.7625  0.0682  0.1938
16929SOL    HW152781   4.738   5.476   5.744  0.5471  1.4298  0.9307
16929SOL    HW252782   4.669   5.411   5.862 -1.3534 -0.0770 -0.9360
16930SOL     OW52783   6.962   3.920   4.883  0.5882  0.0016  0.1636
16930SOL    HW152784   7.003   3.951   4.803  0.5614  0.9305  0.4954
16930SOL    HW252785   6.868   3.933   4.869  0.6222  0.7355  0.5681
16931SOL     OW52786   6.949   2.164   3.643 -0.1323 -0.0802  0.1967
16931SOL    HW152787   6.879   2.141   3.581 -0.3814 -1.2506  0.8645
16931SOL    HW252788   7.003   2.227   3.596 -2.3229  1.8762  0.0838
16932SOL     OW52789   5.285   6.795   5.837 -0.3229 -0.3452  0.3992
16932SOL    HW152790   5.302   6.754   5.752 -0.0735 -0.7871  0.6605
16932SOL    HW252791   5.370   6.800   5.879 -0.7891 -2.8658  1.8408
16933SOL     OW52792   2.528   3.555   7.573  0.1855  0.5869 -0.1441
16933SOL    HW152793   2.496   3.638   7.537  1.1070  1.3766  0.7808
16933SOL    HW252794   2.543   3.500   7.496 -0.0245  1.4299 -0.8061
16934SOL     OW52795   5.439   7.743   3.745 -0.0926 -0.9548 -0.3304
16934SOL    HW152796   5.508   7.680   3.770 -0.1305  0.0797  2.8702
16934SOL    HW252797   5.360   7.690   3.739  0.2723 -1.5709  0.1213
16935SOL     OW52798   8.250   7.693   1.942  0.2395  0.0632  0.6776
16935SOL    HW152799   8.327   7.697   1.999  0.4868 -1.3918  0.4751
16935SOL    HW252800   8.192   7.630   1.985  0.3034 -0.8432 -0.5260
16936SOL     OW52801   5.535   0.281   0.570 -0.4772 -0.1076  0.3471
16936SOL    HW152802   5.508   0.346   0.504 -0.4326  0.1106  0.5404
16936SOL    HW252803   5.603   0.326   0.621  0.2677 -0.6655 -0.1484
16937SOL     OW52804   1.719   4.831   3.788 -0.3291 -0.3983 -0.0491
16937SOL    HW152805   1.664   4.866   3.858 -0.3148 -2.0059  0.8175
16937SOL    HW252806   1.808   4.831   3.825 -0.1188 -0.0785 -0.5422
16938SOL     OW52807   2.341   8.884   6.745  0.4637  0.4016 -0.4995
16938SOL    HW152808   2.265   8.844   6.786  0.7926 -0.0416 -0.3076
16938SOL    HW252809   2.399   8.906   6.818 -0.7078  3.5129 -0.3398
16939SOL     OW52810   5.111   8.889   6.148  0.4500  0.4894  0.1357
16939SOL    HW152811   5.049   8.830   6.190  1.1075 -0.4666 -0.2194
16939SOL    HW252812   5.103   8.971   6.198  0.0700 -0.1230  1.1051
16940SOL     OW52813   4.208   3.664   3.504 -0.1669  0.0027  0.1774
16940SOL    HW152814   4.217   3.739   3.562 -0.4868  0.5297 -0.4410
16940SOL    HW252815   4.123   3.626   3.528 -1.1564  1.2739 -1.1109
16941SOL     OW52816   8.093   3.771   7.172  0.0604  0.1837 -0.1562
16941SOL    HW152817   8.176   3.817   7.157 -0.0987  0.5456  0.0551
16941SOL    HW252818   8.107   3.722   7.253 -0.4070  1.3881  0.6701
16942SOL     OW52819   6.638   2.812   2.567  0.4643 -0.2765 -0.1555
16942SOL    HW152820   6.626   2.907   2.572 -0.4591 -0.3922 -0.0276
16942SOL    HW252821   6.550   2.776   2.579  0.5966 -1.1008 -1.4087
16943SOL     OW52822   4.464   2.675   4.903  0.2260 -0.6942 -0.1018
16943SOL    HW152823   4.426   2.642   4.985 -0.6892 -1.0937 -0.6725
16943SOL    HW252824   4.494   2.764   4.925  0.0747 -0.8256  0.6822
16944SOL     OW52825   6.419   2.499   8.863 -0.4469  0.1237 -0.3323
16944SOL    HW152826   6.394   2.461   8.778  0.4531  0.9193 -0.9752
16944SOL    HW252827   6.338   2.539   8.895 -0.9733 -0.7934 -0.4664
16945SOL     OW52828   2.112   3.347   2.575  0.3931  0.1149  0.4655
16945SOL    HW152829   2.129   3.320   2.485  0.2550 -0.4053  0.5951
16945SOL    HW252830   2.180   3.412   2.594 -0.0016  0.7641 -0.2527
16946SOL     OW52831   6.882   4.816   2.027  0.2251  0.1495 -0.1675
16946SOL    HW152832   6.936   4.737   2.018 -1.0941 -0.7485 -0.5596
16946SOL    HW252833   6.863   4.822   2.120  0.0299 -0.2259 -0.1796
16947SOL     OW52834   8.243   4.166   7.649 -0.0838  0.2828  0.4426
16947SOL    HW152835   8.326   4.118   7.652  0.9869  1.9782 -0.7303
16947SOL    HW252836   8.178   4.098   7.630  1.1043 -0.9736  0.6571
16948SOL     OW52837   7.993   2.654   0.823 -0.5318 -0.2565 -0.2288
16948SOL    HW152838   8.014   2.732   0.873 -0.4429 -0.9621  0.8801
16948SOL    HW252839   7.900   2.664   0.799 -0.4729  0.2567 -0.2385
16949SOL     OW52840   5.237   4.171   2.857 -0.7894  0.8622 -0.0178
16949SOL    HW152841   5.192   4.132   2.933  1.7627 -1.7364  0.3258
16949SOL    HW252842   5.256   4.260   2.884 -0.3064  0.1365  2.2956
16950SOL     OW52843   2.592   3.815   1.052 -0.2036  0.0108  0.0031
16950SOL    HW152844   2.675   3.786   1.090 -0.6379 -2.2340 -0.6025
16950SOL    HW252845   2.617   3.863   0.974  0.5590  0.9652  0.8085
16951SOL     OW52846   8.421   8.236   1.460 -0.8951 -0.4158  0.3050
16951SOL    HW152847   8.383   8.148   1.459  0.9223 -1.2329 -0.2328
16951SOL    HW252848   8.475   8.240   1.382 -0.4774  0.9769  0.6415
16952SOL     OW52849   8.545   0.310   4.071 -0.1505 -0.2201  0.1206
16952SOL    HW152850   8.527   0.368   4.144  0.4598 -0.7395  0.6991
16952SOL    HW252851   8.472   0.249   4.070  0.6961 -1.3225  1.4458
16953SOL     OW52852   6.432   1.056   5.337  0.1952 -0.1829  0.4334
16953SOL    HW152853   6.391   1.046   5.251 -0.1488 -0.7984  0.6632
16953SOL    HW252854   6.371   1.015   5.398  0.9526 -0.7430  0.8330
16954SOL     OW52855   5.113   7.866   0.805 -0.1601  0.0058  0.3593
16954SOL    HW152856   5.142   7.786   0.761 -0.0331 -0.2631  0.9231
16954SOL    HW252857   5.175   7.933   0.777  0.2727 -0.2954  0.5903
16955SOL     OW52858   0.840   4.348   7.981 -0.2532 -0.2889 -0.4459
16955SOL    HW152859   0.764   4.386   7.936 -1.8413 -2.7368  0.0130
16955SOL    HW252860   0.902   4.327   7.911 -1.4908 -1.4292 -1.2389
16956SOL     OW52861   1.994   6.519   1.749  0.5030  0.4716  0.0828
16956SOL    HW152862   2.004   6.548   1.658 -1.0504  0.7143 -0.0475
16956SOL    HW252863   1.965   6.598   1.796  1.3045  0.3499  0.8072
16957SOL     OW52864   3.073   5.350   3.021 -0.4605 -0.4886  0.7014
16957SOL    HW152865   3.151   5.312   3.061 -0.2946  0.6840  1.5471
16957SOL    HW252866   3.048   5.421   3.080 -0.3431  1.1849 -1.1653
16958SOL     OW52867   4.267   3.652   0.684  0.0120  0.0670  0.8009
16958SOL    HW152868   4.235   3.624   0.598  0.6823  0.1879  0.5013
16958SOL    HW252869   4.305   3.738   0.668  1.1446 -0.3761  0.9784
16959SOL     OW52870   3.177   8.798   0.396 -0.0947 -0.4983 -0.1308
16959SOL    HW152871   3.225   8.798   0.478  1.3107  1.9087 -0.8754
16959SOL    HW252872   3.245   8.796   0.328 -0.9928  1.8728 -1.2062
16960SOL     OW52873   0.540   4.994   0.685  0.1637 -0.1877 -0.0621
16960SOL    HW152874   0.583   4.909   0.680  1.3789  0.3766  0.4384
16960SOL    HW252875   0.533   5.023   0.593  0.8102 -0.3132 -0.1539
16961SOL     OW52876   3.285   6.680   4.241 -0.5517  0.3036 -0.4399
16961SOL    HW152877   3.295   6.633   4.324 -1.3868 -0.7475 -0.9095
16961SOL    HW252878   3.342   6.757   4.250 -1.5663  0.8838  1.5790
16962SOL     OW52879   0.996   0.523   7.516 -0.1876  0.0749 -0.3906
16962SOL    HW152880   1.044   0.458   7.464 -0.1837 -0.0800 -0.1936
16962SOL    HW252881   0.905   0.516   7.486 -0.1093  0.3023 -0.6956
16963SOL     OW52882   4.557   5.538   5.024 -0.2698 -0.4611 -0.3569
16963SOL    HW152883   4.600   5.611   5.069  1.1297 -0.8924 -0.9539
16963SOL    HW252884   4.464   5.548   5.046 -0.1076  1.4452 -0.3573
16964SOL     OW52885   6.383   5.695   2.831  0.3298  0.4446  0.0922
16964SOL    HW152886   6.341   5.672   2.913 -1.1909  0.0641 -0.7459
16964SOL    HW252887   6.331   5.768   2.797  0.3542  0.0048 -0.9468
16965SOL     OW52888   0.172   1.351   2.164 -0.2544 -0.6642  0.0781
16965SOL    HW152889   0.080   1.364   2.138 -0.0066 -0.0128 -0.4873
16965SOL    HW252890   0.192   1.262   2.136 -1.4187 -1.7266  2.3429
16966SOL     OW52891   1.952   3.481   6.553 -0.0579  0.2323  0.3076
16966SOL    HW152892   1.977   3.389   6.547 -1.2656 -0.0131 -1.6791
16966SOL    HW252893   1.988   3.522   6.474 -0.8784  1.1225  0.3699
16967SOL     OW52894   1.497   3.463   1.154 -0.0146  0.4187  0.5504
16967SOL    HW152895   1.572   3.510   1.117 -0.7269  1.2003  0.0486
16967SOL    HW252896   1.535   3.399   1.213  1.1559 -0.7132 -1.3551
16968SOL     OW52897   7.315   7.207   5.450 -0.2774  0.6586  0.4309
16968SOL    HW152898   7.334   7.152   5.526  1.7466  1.6390  0.6905
16968SOL    HW252899   7.292   7.292   5.487  0.6780  1.1312 -0.0410
16969SOL     OW52900   2.824   8.194   5.727  0.1896  0.3002 -0.6609
16969SOL    HW152901   2.817   8.099   5.717 -0.9602  0.4794 -1.7270
16969SOL    HW252902   2.770   8.214   5.804  0.2244  0.1171 -0.5894
16970SOL     OW52903   7.014   8.579   3.361 -0.0210 -0.4147 -0.3930
16970SOL    HW152904   6.955   8.581   3.437  0.2973 -1.5221 -0.0968
16970SOL    HW252905   7.004   8.665   3.321 -1.2894 -0.3227  0.0690
16971SOL     OW52906   5.687   5.316   6.921  0.1498 -0.0158 -0.6208
16971SOL    HW152907   5.723   5.295   7.008  0.8731 -1.3871 -1.2191
16971SOL    HW252908   5.694   5.234   6.872 -2.8043 -0.0547 -1.1456
16972SOL     OW52909   2.926   2.005   4.641 -0.2070 -0.3619 -0.3112
16972SOL    HW152910   2.867   2.022   4.567 -1.4579 -1.3827  0.4077
16972SOL    HW252911   2.972   1.924   4.616 -1.4878 -1.3713  0.4939
16973SOL     OW52912   0.398   3.598   2.811  0.2261 -0.1418  0.6075
16973SOL    HW152913   0.452   3.656   2.758  1.3567  0.6169  2.4843
16973SOL    HW252914   0.316   3.646   2.824 -0.5502 -0.8481 -1.3804
16974SOL     OW52915   5.924   0.321   2.974 -0.1154  0.0901 -1.0879
16974SOL    HW152916   5.931   0.281   3.060 -0.5292  1.7537 -0.2430
16974SOL    HW252917   5.883   0.253   2.919  1.2635 -1.4190 -0.3273
16975SOL     OW52918   2.446   3.223   2.351  0.3328  0.2324 -0.0329
16975SOL    HW152919   2.408   3.310   2.359 -1.2409 -0.3397 -0.7786
16975SOL    HW252920   2.533   3.238   2.313  0.3365  1.4977  0.4248
16976SOL     OW52921   2.594   2.835   5.819 -0.1992  0.4940 -0.4912
16976SOL    HW152922   2.618   2.867   5.906 -1.2987  0.7544 -0.2747
16976SOL    HW252923   2.641   2.752   5.810 -1.9699 -0.7752  1.3398
16977SOL     OW52924   8.114   2.403   5.656 -0.0476  0.3864  0.4785
16977SOL    HW152925   8.032   2.436   5.693 -0.6377 -0.4978 -0.0164
16977SOL    HW252926   8.181   2.432   5.717 -0.9268 -0.4491  1.8828
16978SOL     OW52927   3.926   7.144   7.097 -0.2883 -0.1458 -0.4887
16978SOL    HW152928   3.839   7.165   7.130  0.2028  0.7316  0.2987
16978SOL    HW252929   3.948   7.061   7.139 -0.1760  0.3460  0.4523
16979SOL     OW52930   2.194   3.239   3.644  0.4999 -0.2072 -0.7183
16979SOL    HW152931   2.231   3.244   3.732  1.2714 -0.5801 -1.0140
16979SOL    HW252932   2.142   3.319   3.634 -1.3370 -1.1288  0.8515
16980SOL     OW52933   5.169   7.346   5.442 -0.1012  0.2411 -0.5096
16980SOL    HW152934   5.095   7.340   5.503  1.0690  0.2133  0.9519
16980SOL    HW252935   5.162   7.434   5.405 -0.1042  0.7432  0.6407
16981SOL     OW52936   7.231   7.033   6.763  0.4773  0.1146 -0.1929
16981SOL    HW152937   7.221   7.031   6.858 -1.4892  0.2767 -0.3623
16981SOL    HW252938   7.183   7.110   6.735  0.1709 -0.4838 -1.4082
16982SOL     OW52939   1.565   1.129   1.809 -0.0052 -0.1535  0.0616
16982SOL    HW152940   1.614   1.108   1.889  0.9957 -0.5455 -0.6321
16982SOL    HW252941   1.536   1.219   1.822 -0.2922 -0.3684  1.0677
16983SOL     OW52942   8.488   4.678   0.369  0.1791 -0.6384  0.2160
16983SOL    HW152943   8.522   4.641   0.287 -2.9094 -1.3326 -0.8741
16983SOL    HW252944   8.399   4.645   0.375 -0.0080  0.1112  3.4743
16984SOL     OW52945   2.740   3.764   6.949  0.3003  0.2723 -0.3294
16984SOL    HW152946   2.829   3.747   6.918  0.9171  0.2870  1.3505
16984SOL    HW252947   2.709   3.680   6.981 -0.1234  0.3675 -0.4796
16985SOL     OW52948   3.786   4.753   4.736  0.0082  0.7679  0.0404
16985SOL    HW152949   3.863   4.805   4.713 -0.0624  1.1811  0.7237
16985SOL    HW252950   3.720   4.818   4.761 -0.8212  0.4690 -1.2616
16986SOL     OW52951   0.693   1.961   3.881  0.1786 -0.3098  0.0012
16986SOL    HW152952   0.772   1.937   3.833  1.7540 -1.7633  2.9840
16986SOL    HW252953   0.715   2.044   3.924  0.4977 -1.1239  1.4999
16987SOL     OW52954   6.354   6.539   7.389  0.2379 -0.3797  0.3307
16987SOL    HW152955   6.301   6.473   7.433 -1.0310  0.5080  0.1779
16987SOL    HW252956   6.395   6.588   7.460 -1.6005  0.8843  0.5908
16988SOL     OW52957   0.499   8.422   6.640 -0.0509 -0.3848  0.1774
16988SOL    HW152958   0.447   8.428   6.560 -0.9505 -0.2208  0.7592
16988SOL    HW252959   0.465   8.492   6.696  1.1730  0.0857  0.3679
16989SOL     OW52960   8.807   2.864   7.176  0.1631 -0.0812  0.0324
16989SOL    HW152961   8.796   2.893   7.085 -0.3894  0.4526  0.2599
16989SOL    HW252962   8.722   2.827   7.200  0.3995 -0.4932  0.2380
16990SOL     OW52963   6.652   0.543   3.563 -0.3998  0.2621  0.9016
16990SOL    HW152964   6.572   0.583   3.597 -0.3611  0.0807  1.2003
16990SOL    HW252965   6.710   0.618   3.546 -0.1194  0.3083  1.9830
16991SOL     OW52966   0.240   1.907   8.520  0.9003  0.1042 -0.1179
16991SOL    HW152967   0.307   1.956   8.471  1.0112 -1.0542 -1.1653
16991SOL    HW252968   0.188   1.864   8.453  0.0887 -0.2979  0.7504
16992SOL     OW52969   6.169   5.250   7.288 -0.5939 -0.1727 -0.1204
16992SOL    HW152970   6.217   5.209   7.359  0.7395 -0.2727 -1.0429
16992SOL    HW252971   6.233   5.307   7.245 -1.5928  0.5354 -0.7287
16993SOL     OW52972   1.398   3.102   8.863  0.0546 -0.2520 -0.0106
16993SOL    HW152973   1.439   3.183   8.834  0.1459 -0.5038 -0.6115
16993SOL    HW252974   1.321   3.130   8.913  1.1031  0.2279  1.4008
16994SOL     OW52975   1.909   5.427   8.456  0.6019 -0.1837 -0.3904
16994SOL    HW152976   1.877   5.491   8.520 -0.5234  1.3367 -2.3431
16994SOL    HW252977   2.003   5.445   8.449  0.4280  0.7700 -0.3793
16995SOL     OW52978   7.916   1.637   0.282  0.0692  0.1271 -0.4300
16995SOL    HW152979   7.948   1.561   0.332 -0.8142 -0.6011 -0.9275
16995SOL    HW252980   7.912   1.605   0.192  0.4817  1.0476 -0.7843
16996SOL     OW52981   3.343   4.252   4.765 -0.0183  0.3756 -0.7485
16996SOL    HW152982   3.359   4.346   4.753  0.3411  0.5732  0.9782
16996SOL    HW252983   3.400   4.210   4.701 -0.0891  1.3207 -1.4636
16997SOL     OW52984   0.773   3.908   2.578  0.5403  0.6388  0.1817
16997SOL    HW152985   0.767   3.867   2.664 -1.8043 -0.2032 -0.3044
16997SOL    HW252986   0.830   3.850   2.527 -1.1836 -1.0511  0.0779
16998SOL     OW52987   6.213   6.041   3.527 -0.1099 -0.4837 -0.0217
16998SOL    HW152988   6.201   5.975   3.459 -0.4471  1.3803 -1.8995
16998SOL    HW252989   6.140   6.102   3.514  2.2677  2.3797 -1.0545
16999SOL     OW52990   1.273   1.675   2.796  0.7209  0.4397  0.0197
16999SOL    HW152991   1.330   1.624   2.853 -1.5503  0.1649  2.2052
16999SOL    HW252992   1.229   1.736   2.854 -2.7643 -0.7800 -1.1126
17000SOL     OW52993   7.224   3.256   1.425  0.8794 -0.4774  1.0233
17000SOL    HW152994   7.154   3.208   1.382  0.6734 -0.3211  1.1829
17000SOL    HW252995   7.267   3.191   1.481  2.3918 -1.1910 -0.8463
17001SOL     OW52996   1.001   7.947   5.240 -0.0010  0.1124 -0.3308
17001SOL    HW152997   1.045   8.010   5.297 -0.8789  0.0108  0.4726
17001SOL    HW252998   0.933   7.908   5.294  2.0981 -3.4488  0.0442
17002SOL     OW52999   4.798   1.125   8.515  0.1940  0.1343 -0.1043
17002SOL    HW153000   4.770   1.201   8.465  0.6944  1.0729  0.9799
17002SOL    HW253001   4.717   1.086   8.549 -0.0867 -0.0520 -0.9712
17003SOL     OW53002   7.133   0.020   1.918 -0.2524  0.5342  0.2770
17003SOL    HW153003   7.191   0.088   1.951 -0.3773  0.2407  1.1322
17003SOL    HW253004   7.079  -0.004   1.993 -2.8402  2.1358 -0.9227
17004SOL     OW53005   0.155   7.082   3.137 -0.1220  0.4058  0.2647
17004SOL    HW153006   0.240   7.089   3.093 -0.3410  0.5402 -0.1486
17004SOL    HW253007   0.173   7.100   3.229  0.3365  0.1812  0.2177
17005SOL     OW53008   4.746   7.552   0.748 -0.0453  0.0818  0.7326
17005SOL    HW153009   4.735   7.623   0.686  0.3271 -0.8623 -0.4575
17005SOL    HW253010   4.780   7.594   0.827 -0.6154  1.3190  0.3460
17006SOL     OW53011   8.632   1.681   8.237  0.3563  0.2729  0.4224
17006SOL    HW153012   8.555   1.645   8.193  1.5006 -2.3515  0.4150
17006SOL    HW253013   8.701   1.677   8.171  1.2815 -0.5279  1.4216
17007SOL     OW53014   2.145   4.758   2.212  0.0323  0.7890  0.2989
17007SOL    HW153015   2.181   4.728   2.295  1.9658  0.7160 -0.5048
17007SOL    HW253016   2.174   4.693   2.148 -4.1170 -0.9918 -0.0900
17008SOL     OW53017   6.484   1.458   8.184  0.1321 -0.1443  0.5257
17008SOL    HW153018   6.434   1.442   8.103  0.1633 -0.6907  0.6151
17008SOL    HW253019   6.422   1.501   8.242 -0.8250 -2.4482  1.3086
17009SOL     OW53020   8.138   2.370   7.974 -0.3914 -0.5169  0.4806
17009SOL    HW153021   8.122   2.292   8.027  0.2130 -0.2914  1.0061
17009SOL    HW253022   8.222   2.355   7.932 -1.0350 -0.8533 -0.7308
17010SOL     OW53023   6.874   4.173   0.690  0.6928 -0.4119  0.0270
17010SOL    HW153024   6.807   4.200   0.628  0.4749 -1.7863 -0.3821
17010SOL    HW253025   6.953   4.161   0.636  0.5420 -1.4636  0.0081
17011SOL     OW53026   0.738   1.926   7.530  0.2631  0.1135 -1.1636
17011SOL    HW153027   0.751   1.895   7.441  3.4271 -1.9031 -0.1896
17011SOL    HW253028   0.677   1.863   7.569  2.5675 -1.9834 -0.6924
17012SOL     OW53029   5.786   6.228   3.913 -0.7513  0.0568 -0.0592
17012SOL    HW153030   5.882   6.222   3.918 -0.7576  0.6289  0.9214
17012SOL    HW253031   5.768   6.236   3.819  0.0293 -1.8341 -0.4227
17013SOL     OW53032   2.039   2.938   5.072 -0.1511  0.1461  0.1823
17013SOL    HW153033   2.067   2.846   5.080  0.6830  0.4749  1.3142
17013SOL    HW253034   1.972   2.937   5.004  0.3348 -1.2009 -0.3099
17014SOL     OW53035   8.595   6.195   7.964 -0.3009 -0.0861 -0.3107
17014SOL    HW153036   8.517   6.247   7.949  1.1123  1.6344 -2.2222
17014SOL    HW253037   8.660   6.257   7.998  1.8024 -0.1393 -3.7616
17015SOL     OW53038   2.824   4.157   5.424  0.5234 -0.1558  0.3526
17015SOL    HW153039   2.858   4.082   5.473  0.4575 -1.5462 -1.6310
17015SOL    HW253040   2.894   4.222   5.428  1.2788 -0.9741  0.6998
17016SOL     OW53041   3.845   0.676   8.209  0.2874 -0.5144  0.1740
17016SOL    HW153042   3.903   0.735   8.257  0.6198 -1.3735  0.8578
17016SOL    HW253043   3.881   0.673   8.121 -0.8563  1.8128 -0.4633
17017SOL     OW53044   5.819   7.032   1.955  0.6286  0.4396 -0.3490
17017SOL    HW153045   5.874   7.025   2.033 -3.0988  0.1696  2.5311
17017SOL    HW253046   5.761   7.105   1.973 -3.4719 -2.4355 -0.5436
17018SOL     OW53047   2.904   6.190   3.628  0.1980  0.1007 -0.6458
17018SOL    HW153048   2.858   6.271   3.604  1.9773  1.0094 -1.1541
17018SOL    HW253049   2.873   6.170   3.717 -1.8209  0.1399 -1.2797
17019SOL     OW53050   1.882   1.641   7.616  0.0561 -0.0902  0.8235
17019SOL    HW153051   1.850   1.702   7.549  0.2783  2.0760  2.5648
17019SOL    HW253052   1.932   1.576   7.567 -0.8046  0.6802 -1.2154
17020SOL     OW53053   4.726   8.187   1.033  0.4369  0.0313 -0.5615
17020SOL    HW153054   4.693   8.200   1.122 -0.5161 -0.0447 -0.8956
17020SOL    HW253055   4.707   8.095   1.013  1.0337 -0.0715 -0.6952
17021SOL     OW53056   5.714   5.095   6.772 -0.1116 -0.2494  0.4397
17021SOL    HW153057   5.740   5.009   6.806  1.1907  0.7593  2.1849
17021SOL    HW253058   5.781   5.117   6.708  0.6804  0.2563  1.4075
17022SOL     OW53059   5.596   7.825   0.841  0.4469  0.3104  0.2573
17022SOL    HW153060   5.668   7.821   0.779  0.6727  1.7691  0.3995
17022SOL    HW253061   5.592   7.916   0.868 -0.4188 -0.0595  1.4803
17023SOL     OW53062   4.246   3.154   4.672  0.2419 -0.5070  0.0574
17023SOL    HW153063   4.295   3.197   4.602  0.8283 -2.6069 -0.9265
17023SOL    HW253064   4.311   3.099   4.716 -0.1571  0.6036  2.1799
17024SOL     OW53065   2.962   7.238   4.636  0.0542 -0.2766  0.4461
17024SOL    HW153066   2.902   7.217   4.565 -0.2690  0.1106  0.6046
17024SOL    HW253067   3.048   7.245   4.594  0.1580 -1.7827  0.3678
17025SOL     OW53068   4.025   6.155   4.669  0.4442  0.4653 -0.0255
17025SOL    HW153069   4.035   6.080   4.728 -0.6249 -0.6830 -1.2545
17025SOL    HW253070   3.948   6.201   4.702  0.6959  0.6424  0.3214
17026SOL     OW53071   8.332   5.443   6.995 -0.4783  0.1481  0.3255
17026SOL    HW153072   8.366   5.520   6.948 -0.6611 -0.1579 -0.3254
17026SOL    HW253073   8.395   5.373   6.974 -0.9603 -0.1722 -0.0642
17027SOL     OW53074   4.122   5.000   7.353  0.2791  0.0619  0.3354
17027SOL    HW153075   4.190   4.942   7.319  0.6593  0.6350  0.0890
17027SOL    HW253076   4.046   4.943   7.368  0.3648 -0.3573 -0.7115
17028SOL     OW53077   8.328   8.760   4.560  0.2270 -0.1228  0.7778
17028SOL    HW153078   8.325   8.822   4.488  0.8736 -1.5066 -0.5015
17028SOL    HW253079   8.264   8.793   4.623 -1.5611  0.2889 -1.1290
17029SOL     OW53080   5.807   0.848   4.785 -0.5084 -0.5769  0.4230
17029SOL    HW153081   5.811   0.754   4.802 -0.6957 -0.5823  0.4396
17029SOL    HW253082   5.864   0.861   4.708 -2.3999 -1.0797 -1.1414
17030SOL     OW53083   0.869   4.510   4.842  0.3885 -0.3688 -0.4740
17030SOL    HW153084   0.886   4.603   4.828 -1.6796 -0.1044 -1.6616
17030SOL    HW253085   0.898   4.467   4.762 -0.8875 -0.3896 -0.9502
17031SOL     OW53086   6.084   6.529   2.177 -0.0148 -0.0282  0.4695
17031SOL    HW153087   6.178   6.528   2.197 -0.1908  0.3418  1.3593
17031SOL    HW253088   6.076   6.477   2.097  1.0708  0.7306 -0.1660
17032SOL     OW53089   2.686   6.805   6.622 -0.1339  0.0453  0.6744
17032SOL    HW153090   2.712   6.717   6.650 -1.0526  0.0606  1.6149
17032SOL    HW253091   2.640   6.792   6.539  1.6296 -0.1118 -0.3420
17033SOL     OW53092   4.962   7.795   0.348  0.1538 -0.1072 -0.3743
17033SOL    HW153093   5.022   7.788   0.422  1.6708 -0.7044 -1.6181
17033SOL    HW253094   4.983   7.721   0.291 -1.5591 -0.1595 -1.0141
17034SOL     OW53095   6.032   7.111   2.500 -0.6893 -0.0737 -0.2244
17034SOL    HW153096   6.118   7.113   2.457 -1.2735  0.5559 -1.4059
17034SOL    HW253097   5.969   7.123   2.429 -1.6567  2.1336  0.8925
17035SOL     OW53098   2.254   4.438   1.159 -0.6454 -0.2187  0.2642
17035SOL    HW153099   2.275   4.397   1.075  1.6135 -0.4716  0.8749
17035SOL    HW253100   2.184   4.500   1.138 -2.5129 -2.6274 -1.1262
17036SOL     OW53101   7.248   4.879   5.979  0.3444  0.0258 -0.3186
17036SOL    HW153102   7.229   4.844   5.892 -0.5407  0.7928 -0.4508
17036SOL    HW253103   7.166   4.866   6.028  0.0860  1.5673 -0.2766
17037SOL     OW53104   0.285   4.067   4.741  0.1243 -0.2589  0.1488
17037SOL    HW153105   0.196   4.032   4.738 -0.3326  0.9099 -2.2499
17037SOL    HW253106   0.286   4.125   4.816 -0.7671 -1.1586  0.8784
17038SOL     OW53107   2.778   2.174   1.974 -0.5095  0.1559  0.2585
17038SOL    HW153108   2.709   2.228   1.937  1.2953  1.6414 -1.1497
17038SOL    HW253109   2.760   2.173   2.068 -0.7546  3.0898  0.3307
17039SOL     OW53110   7.916   1.974   1.694  0.3133  0.5056  0.0877
17039SOL    HW153111   7.999   1.969   1.647 -0.1118  0.3720 -0.6676
17039SOL    HW253112   7.925   1.910   1.765  1.2156  1.1891  0.6088
17040SOL     OW53113   0.501   8.351   3.096 -0.3134  0.0290 -0.3416
17040SOL    HW153114   0.532   8.379   3.010 -0.9364 -0.8277 -0.8544
17040SOL    HW253115   0.416   8.311   3.080  0.5301 -2.2057  0.3325
17041SOL     OW53116   8.736   6.730   7.479 -0.2827  0.1953 -0.0491
17041SOL    HW153117   8.692   6.810   7.452 -0.8544  0.3016  1.1267
17041SOL    HW253118   8.795   6.757   7.548  0.6103 -0.1802 -0.6438
17042SOL     OW53119   0.031   7.285   3.750  0.1408 -0.0150  0.0350
17042SOL    HW153120   0.049   7.372   3.786  0.0021 -0.3427  0.9194
17042SOL    HW253121  -0.064   7.277   3.757 -0.2126  0.8811 -2.6823
17043SOL     OW53122   4.285   2.234   4.392  0.2344  0.0395 -0.0117
17043SOL    HW153123   4.294   2.199   4.303 -1.9224 -1.3708  0.2456
17043SOL    HW253124   4.242   2.164   4.441 -0.8382  1.6798  1.5302
17044SOL     OW53125   8.846   3.625   5.422 -0.0470  0.4843 -0.1382
17044SOL    HW153126   8.901   3.584   5.355 -0.1021  0.9247 -0.4537
17044SOL    HW253127   8.824   3.553   5.482  1.8623  0.5252  0.6927
17045SOL     OW53128   0.722   3.237   7.536  0.2277  0.0076 -0.4212
17045SOL    HW153129   0.739   3.210   7.626 -0.3491  0.9722 -0.0150
17045SOL    HW253130   0.742   3.159   7.484  3.9150  0.3561  0.1574
17046SOL     OW53131   0.390   3.423   3.272 -0.1192  0.2621  0.0018
17046SOL    HW153132   0.461   3.380   3.224 -1.0940  1.3547 -2.5584
17046SOL    HW253133   0.434   3.486   3.329  0.9971  0.9991 -1.6154
17047SOL     OW53134   8.352   5.081   5.093  0.2001  0.2684  0.4030
17047SOL    HW153135   8.359   5.015   5.024  0.7020 -0.2142  0.8946
17047SOL    HW253136   8.338   5.030   5.173  1.4218  0.6808  0.9141
17048SOL     OW53137   4.256   5.239   3.575  0.1869  0.3705 -0.4834
17048SOL    HW153138   4.240   5.146   3.559  1.2427  0.3099 -1.3093
17048SOL    HW253139   4.202   5.285   3.510 -0.5703  0.3617  0.1233
17049SOL     OW53140   8.041   0.466   1.434  0.1716  0.2856 -0.3275
17049SOL    HW153141   8.070   0.494   1.347  1.8384 -0.8067 -0.1729
17049SOL    HW253142   8.118   0.424   1.473 -0.6139  0.4914  1.5785
17050SOL     OW53143   4.966   4.651   0.359  0.0854  0.7010 -0.3285
17050SOL    HW153144   5.012   4.712   0.416 -0.2377  0.3329  0.3351
17050SOL    HW253145   4.894   4.618   0.412  0.7718 -0.9439 -0.3448
17051SOL     OW53146   2.984   3.180   3.929  0.1456  0.4575  0.6816
17051SOL    HW153147   2.954   3.158   3.841 -0.5984  0.7872  0.8444
17051SOL    HW253148   3.022   3.099   3.963  0.0367  0.2116  0.2185
17052SOL     OW53149   7.761   0.496   3.848  0.2680  0.0047 -0.0454
17052SOL    HW153150   7.829   0.448   3.802 -0.6246 -2.1905  0.7798
17052SOL    HW253151   7.686   0.496   3.789 -0.2372 -1.0709  0.5554
17053SOL     OW53152   7.529   2.631   5.030  0.2237 -0.2325  0.2960
17053SOL    HW153153   7.587   2.574   4.980 -0.8370 -0.1718 -1.0806
17053SOL    HW253154   7.456   2.648   4.970 -0.7722  0.4058  1.6526
17054SOL     OW53155   7.235   3.878   4.750 -0.3063  0.6346  0.6512
17054SOL    HW153156   7.257   3.792   4.714  1.5713  0.6929  1.5302
17054SOL    HW253157   7.217   3.932   4.673  0.2584 -0.1013 -0.0150
17055SOL     OW53158   3.885   2.078   8.336  0.0419 -0.1985  0.1821
17055SOL    HW153159   3.858   1.988   8.316 -1.7839  0.2697  0.3963
17055SOL    HW253160   3.809   2.131   8.314 -0.1985  0.9376  3.2869
17056SOL     OW53161   0.629   0.517   1.910 -0.5425  0.2094 -0.4979
17056SOL    HW153162   0.684   0.555   1.841  0.0991  0.4117  0.1130
17056SOL    HW253163   0.571   0.456   1.864 -0.8478  1.1219 -1.3520
17057SOL     OW53164   7.366   1.300   8.116  0.0506  0.0079 -0.5361
17057SOL    HW153165   7.411   1.216   8.113 -1.2148 -0.7737  0.8348
17057SOL    HW253166   7.403   1.344   8.192  0.8581  0.8122 -1.3704
17058SOL     OW53167   1.080   8.075   7.874 -0.5232  0.2632 -0.1535
17058SOL    HW153168   1.038   8.035   7.950  0.2201  0.4635  0.3702
17058SOL    HW253169   1.166   8.102   7.905  0.0831 -0.3032 -1.2585
17059SOL     OW53170   0.610   0.110   4.057  0.1355  0.3647  0.4304
17059SOL    HW153171   0.596   0.050   3.983 -2.4187  0.3635  0.8245
17059SOL    HW253172   0.642   0.191   4.016 -2.3237  0.7713 -0.9229
17060SOL     OW53173   4.022   2.059   8.081 -0.9610 -0.0511 -0.4017
17060SOL    HW153174   4.010   1.964   8.084  0.4217 -0.3463 -2.4873
17060SOL    HW253175   3.986   2.090   8.164  0.3557 -2.5926  1.2546
17061SOL     OW53176   7.372   4.351   8.199 -0.2063 -0.4301  0.0648
17061SOL    HW153177   7.418   4.340   8.282  0.0477 -0.9831 -0.1425
17061SOL    HW253178   7.434   4.322   8.133  0.2132  1.5965 -0.4767
17062SOL     OW53179   5.568   4.244   2.929 -0.4685  0.4894  0.1107
17062SOL    HW153180   5.594   4.278   2.844 -1.9004  1.0228 -0.1404
17062SOL    HW253181   5.557   4.322   2.983  2.5645  0.1024  1.5051
17063SOL     OW53182   2.742   7.297   6.315 -0.4045  0.6333 -0.1835
17063SOL    HW153183   2.742   7.255   6.401 -2.1558 -0.8414 -0.8316
17063SOL    HW253184   2.773   7.386   6.332 -0.0445  0.1778  1.8467
17064SOL     OW53185   2.121   5.568   4.541  0.0445 -0.0781  0.1366
17064SOL    HW153186   2.146   5.575   4.633 -0.1192  0.0874  0.1682
17064SOL    HW253187   2.085   5.653   4.519  0.1864 -0.0812 -0.1126
17065SOL     OW53188   3.515   2.687   8.184 -0.3524  0.1111 -0.7709
17065SOL    HW153189   3.500   2.775   8.150 -1.3108  0.5747  0.7377
17065SOL    HW253190   3.574   2.699   8.258 -1.5380 -0.3092  0.2792
17066SOL     OW53191   7.355   1.075   2.060  0.0148  0.3184  0.0979
17066SOL    HW153192   7.287   1.122   2.013  0.0168 -0.5050 -0.7520
17066SOL    HW253193   7.436   1.119   2.035  0.0375 -0.2337 -0.8470
17067SOL     OW53194   0.829   6.990   3.637  0.4094  0.4155  0.3852
17067SOL    HW153195   0.892   6.923   3.610  1.0606  1.1270  0.0692
17067SOL    HW253196   0.746   6.963   3.598  0.6794 -0.1711  0.2123
17068SOL     OW53197   1.995   7.199   8.563 -0.4663  0.0552  0.1970
17068SOL    HW153198   1.922   7.198   8.625 -0.1535 -1.4687  0.5848
17068SOL    HW253199   2.021   7.291   8.559 -3.5106  0.9881 -1.3236
17069SOL     OW53200   4.074   1.620   0.132  0.3514  0.1603 -0.2052
17069SOL    HW153201   4.091   1.546   0.190  0.4675  0.6487  0.3993
17069SOL    HW253202   4.159   1.643   0.095  0.7500  1.4366  1.3943
17070SOL     OW53203   3.673   8.687   0.542  0.5670  0.1547  0.1764
17070SOL    HW153204   3.597   8.637   0.513  0.8655  0.0777 -0.5034
17070SOL    HW253205   3.664   8.772   0.498  0.9773  0.0731 -0.0701
17071SOL     OW53206   8.770   7.617   0.839 -0.2738  0.0643  0.0231
17071SOL    HW153207   8.717   7.637   0.762 -0.4806 -1.7954 -0.3818
17071SOL    HW253208   8.813   7.534   0.817 -0.7195 -0.7731  2.0670
17072SOL     OW53209   1.272   3.023   3.231 -0.1758  0.1171 -0.0621
17072SOL    HW153210   1.199   2.986   3.281  0.3146 -0.2723  0.3685
17072SOL    HW253211   1.280   3.112   3.263 -0.4242  0.1452 -0.0721
17073SOL     OW53212   3.907   6.652   3.734 -0.6276  0.3019 -0.2666
17073SOL    HW153213   3.958   6.578   3.765 -1.9085 -0.4852  0.0272
17073SOL    HW253214   3.917   6.718   3.803 -0.3825 -0.0150  0.0036
17074SOL     OW53215   8.065   6.363   6.233  0.2162 -0.5276  0.2401
17074SOL    HW153216   8.114   6.393   6.309  1.1012 -0.5975 -0.2923
17074SOL    HW253217   8.123   6.378   6.159 -0.9928  0.4382 -0.5628
17075SOL     OW53218   4.041   7.642   0.595 -0.0884 -0.0651 -0.1777
17075SOL    HW153219   3.966   7.584   0.582  1.1321 -1.5082 -1.0715
17075SOL    HW253220   4.019   7.722   0.548 -1.4198 -0.1295  0.3094
17076SOL     OW53221   5.912   3.148   4.645 -0.4244 -0.4274 -0.5294
17076SOL    HW153222   5.989   3.135   4.589 -0.3128  0.4937 -0.6021
17076SOL    HW253223   5.854   3.076   4.623 -0.3655 -0.1019 -1.8117
17077SOL     OW53224   6.892   3.570   5.175 -0.1421  0.3452 -0.6223
17077SOL    HW153225   6.815   3.579   5.118 -0.1898 -1.1678 -0.8189
17077SOL    HW253226   6.965   3.559   5.115  0.0460  0.3947 -0.4031
17078SOL     OW53227   1.651   4.357   7.138  0.2286  0.3076  0.0935
17078SOL    HW153228   1.677   4.409   7.062 -1.2644 -1.2576 -1.5928
17078SOL    HW253229   1.562   4.385   7.157  0.0680 -0.3444  0.3325
17079SOL     OW53230   6.583   4.959   0.493 -0.1511  0.4205  0.4222
17079SOL    HW153231   6.524   4.890   0.462 -0.4007  1.2890 -1.1511
17079SOL    HW253232   6.548   4.984   0.578  0.0647 -1.5117  1.1232
17080SOL     OW53233   8.255   7.865   0.049 -0.1430  0.0350 -0.5259
17080SOL    HW153234   8.310   7.937   0.016  0.9955 -1.1335 -1.2723
17080SOL    HW253235   8.246   7.806  -0.026  0.4808 -1.5121  0.5663
17081SOL     OW53236   5.237   6.355   6.715 -0.5593  0.4222  0.3490
17081SOL    HW153237   5.192   6.391   6.638  1.1614 -0.8578 -1.3384
17081SOL    HW253238   5.168   6.311   6.764 -1.8681  2.0524  0.0736
17082SOL     OW53239   2.773   5.131   6.430 -0.0708  0.2732 -0.2259
17082SOL    HW153240   2.812   5.045   6.418 -1.2479 -0.6004  1.8388
17082SOL    HW253241   2.761   5.165   6.341  0.5289 -1.6160 -1.0634
17083SOL     OW53242   3.280   8.247   0.898  0.0195 -0.4261 -0.4661
17083SOL    HW153243   3.200   8.299   0.892 -0.9111 -1.8117 -0.6775
17083SOL    HW253244   3.293   8.232   0.991  1.0125  1.1988 -0.3087
17084SOL     OW53245   7.276   6.580   4.350  0.4754 -0.2127 -0.2244
17084SOL    HW153246   7.319   6.497   4.331  1.1561 -0.1923  1.0967
17084SOL    HW253247   7.244   6.611   4.265 -1.7278 -2.8389 -0.4762
17085SOL     OW53248   2.501   4.397   5.057  0.9738  0.2068 -0.1023
17085SOL    HW153249   2.423   4.447   5.081  1.6152  1.0643  0.2149
17085SOL    HW253250   2.475   4.305   5.069  0.4277  0.5255  1.2704
17086SOL     OW53251   8.766   5.722   4.649  0.4370 -0.0686 -0.2074
17086SOL    HW153252   8.671   5.728   4.636  0.1154 -1.3892  1.2123
17086SOL    HW253253   8.795   5.813   4.652 -1.2389  0.4853  2.1292
17087SOL     OW53254   7.738   3.270   5.982 -0.2256 -0.1794 -0.3723
17087SOL    HW153255   7.650   3.305   5.968 -0.0270  0.0384 -1.1126
17087SOL    HW253256   7.725   3.175   5.986 -0.2410 -0.3348 -2.7379
17088SOL     OW53257   3.438   3.466   1.943  0.3154 -0.0732 -0.4861
17088SOL    HW153258   3.412   3.382   1.906 -0.8666 -1.2610  2.7302
17088SOL    HW253259   3.448   3.449   2.037  0.3462  3.3198  0.2468
17089SOL     OW53260   2.074   6.703   8.228  0.1117  0.0158  0.0766
17089SOL    HW153261   2.041   6.757   8.157 -0.4575  0.0399  0.3608
17089SOL    HW253262   1.996   6.669   8.272  0.4536 -0.7782  0.0982
17090SOL     OW53263   7.653   6.866   2.720 -0.1668 -0.6614 -0.7743
17090SOL    HW153264   7.618   6.943   2.674 -2.0757 -1.3853 -0.6032
17090SOL    HW253265   7.615   6.870   2.807  1.8588 -0.3911  0.1546
17091SOL     OW53266   8.357   2.022   0.296  0.2421 -0.3236 -0.2695
17091SOL    HW153267   8.389   2.077   0.367 -0.7819 -0.7954  0.5936
17091SOL    HW253268   8.420   1.950   0.291  0.3583 -0.2471  0.1090
17092SOL     OW53269   8.088   7.591   6.004 -0.3674  0.0668 -0.3353
17092SOL    HW153270   8.055   7.524   5.945 -0.6994  0.7761 -0.9758
17092SOL    HW253271   8.030   7.666   5.990  0.3710  0.7014 -0.1003
17093SOL     OW53272   0.219   7.344   6.646 -0.0089 -0.3444 -0.0265
17093SOL    HW153273   0.262   7.262   6.669  0.2280  0.1110  1.2171
17093SOL    HW253274   0.188   7.379   6.730 -2.4833 -0.4700 -0.7993
17094SOL     OW53275   3.763   8.719   4.297 -0.6268 -0.1367  0.3425
17094SOL    HW153276   3.776   8.678   4.383  0.0628 -0.3220  0.1512
17094SOL    HW253277   3.831   8.786   4.292 -1.0596  0.2975  0.1911
17095SOL     OW53278   0.947   6.064   7.267  0.2124  0.1856 -0.1214
17095SOL    HW153279   0.987   5.977   7.259 -1.0206 -0.3794 -0.2562
17095SOL    HW253280   0.995   6.105   7.340  1.6601 -0.1005 -0.8704
17096SOL     OW53281   1.796   4.131   7.218  0.2303 -0.0165 -0.4449
17096SOL    HW153282   1.726   4.064   7.217 -0.6117  0.8426 -1.4669
17096SOL    HW253283   1.750   4.213   7.203  1.4631  0.5895 -0.9926
17097SOL     OW53284   1.403   2.145   6.558  0.2266 -0.0333 -0.0509
17097SOL    HW153285   1.461   2.221   6.553  1.6493 -1.0538  0.2795
17097SOL    HW253286   1.389   2.120   6.467  1.5739 -0.6597 -0.1221
17098SOL     OW53287   4.996   8.548   2.927 -0.0050 -0.3325 -0.2671
17098SOL    HW153288   5.058   8.481   2.957 -1.8082 -1.9250  0.1287
17098SOL    HW253289   5.018   8.562   2.835  0.5828 -1.2683 -0.2843
17099SOL     OW53290   6.942   2.019   8.520  0.0180 -1.2304 -0.7075
17099SOL    HW153291   6.953   2.055   8.609  1.3970 -2.2780 -0.4256
17099SOL    HW253292   6.849   1.999   8.514 -0.1534 -0.8212  0.3930
17100SOL     OW53293   3.023   2.211   6.509  0.3928 -0.5390 -0.1686
17100SOL    HW153294   2.969   2.155   6.454  1.0941 -0.7377 -0.6768
17100SOL    HW253295   3.112   2.201   6.474  0.6341  0.3979  0.1285
17101SOL     OW53296   8.030   7.627   1.602 -0.0841 -0.1519 -0.7873
17101SOL    HW153297   8.042   7.570   1.678 -0.2012 -2.4808 -2.3943
17101SOL    HW253298   8.083   7.704   1.620  0.8062 -1.1631  1.1300
17102SOL     OW53299   7.225   3.662   6.744 -0.4118 -0.1347 -0.0336
17102SOL    HW153300   7.254   3.573   6.766  1.4405  0.5332  0.3647
17102SOL    HW253301   7.156   3.648   6.678  0.4023 -1.8507 -0.6058
17103SOL     OW53302   1.577   0.984   5.923  0.2142  0.4362  0.2831
17103SOL    HW153303   1.651   1.041   5.942  0.5344 -0.0179  0.4289
17103SOL    HW253304   1.571   0.926   5.999 -1.0921  1.2840  0.8553
17104SOL     OW53305   3.265   8.440   0.004 -0.3705 -0.1389 -0.3829
17104SOL    HW153306   3.189   8.397   0.044 -0.1765 -0.3585 -0.2444
17104SOL    HW253307   3.319   8.467   0.078  1.9146 -3.9354 -0.3799
17105SOL     OW53308   2.248   8.758   5.790 -0.2850  0.1845  0.7346
17105SOL    HW153309   2.173   8.752   5.731 -1.1905  0.4264  1.8268
17105SOL    HW253310   2.270   8.851   5.792  1.9990 -0.1772 -1.8879
17106SOL     OW53311   2.159   7.512   7.270  0.4388  0.3324  0.0962
17106SOL    HW153312   2.185   7.555   7.351 -2.1749 -2.1723  2.4828
17106SOL    HW253313   2.065   7.498   7.279  0.3014 -1.3952 -2.7179
17107SOL     OW53314   0.222   4.167   2.476  0.1459 -0.3420  0.3942
17107SOL    HW153315   0.291   4.231   2.492  2.4681 -2.0928 -1.7106
17107SOL    HW253316   0.206   4.171   2.382 -0.1761 -2.2629  0.3121
17108SOL     OW53317   0.850   0.993   2.036  0.0654 -0.4243 -0.0596
17108SOL    HW153318   0.896   0.911   2.020  1.1517  0.2698 -0.6633
17108SOL    HW253319   0.812   1.017   1.952  0.6768  0.2145 -0.1717
17109SOL     OW53320   3.047   2.246   8.831  0.3597  0.7176 -0.1194
17109SOL    HW153321   3.142   2.235   8.835  0.2942  0.2115 -0.0029
17109SOL    HW253322   3.034   2.340   8.843  0.8210  0.7322  0.2845
17110SOL     OW53323   4.860   1.789   1.614  0.2917 -0.0681 -0.2898
17110SOL    HW153324   4.908   1.808   1.533  0.0497 -3.0205 -1.2432
17110SOL    HW253325   4.771   1.819   1.597  0.5770  0.6852 -0.5130
17111SOL     OW53326   0.373   4.657   3.722 -0.0039 -0.1684  0.5586
17111SOL    HW153327   0.460   4.695   3.709  0.4750 -1.1081  1.0139
17111SOL    HW253328   0.318   4.732   3.746  1.0846  0.1499  2.1904
17112SOL     OW53329   8.020   4.479   5.005  0.8014  0.6813 -0.1861
17112SOL    HW153330   8.035   4.427   5.085  1.1925 -0.8340 -1.2025
17112SOL    HW253331   7.934   4.452   4.975  0.8644  0.8757 -0.5441
17113SOL     OW53332   8.418   5.534   8.257 -0.2436 -0.0092  0.3244
17113SOL    HW153333   8.402   5.622   8.293  0.9876 -0.3939  1.9633
17113SOL    HW253334   8.511   5.535   8.233 -0.7202 -0.2238 -1.6761
17114SOL     OW53335   8.439   5.127   5.402  0.5808 -0.6363 -0.1528
17114SOL    HW153336   8.441   5.217   5.372 -1.8755 -0.7141 -0.8073
17114SOL    HW253337   8.528   5.095   5.389  1.2712  1.3941 -0.7989
17115SOL     OW53338   7.872   1.058   8.005  0.2955 -0.3593  0.3832
17115SOL    HW153339   7.948   1.081   8.058  0.7701 -0.0338 -0.4154
17115SOL    HW253340   7.820   1.000   8.060  0.9250 -0.2653  1.0840
17116SOL     OW53341   6.004   6.624   0.720 -0.2096  0.0002  0.3219
17116SOL    HW153342   5.950   6.693   0.681  1.9026  1.3700 -0.3510
17116SOL    HW253343   5.979   6.545   0.673 -1.6727  0.5596  0.1017
17117SOL     OW53344   7.195   8.315   4.844 -0.1872 -0.6005  0.0206
17117SOL    HW153345   7.245   8.395   4.832 -1.4481  0.5275  1.7970
17117SOL    HW253346   7.118   8.327   4.788 -1.3405  0.3550  1.7494
17118SOL     OW53347   5.025   5.182   7.783  0.7919 -0.3839 -0.2723
17118SOL    HW153348   5.001   5.182   7.690  2.5528 -1.3588 -0.7816
17118SOL    HW253349   5.116   5.212   7.784  0.8495 -0.5430  1.1226
17119SOL     OW53350   2.029   1.755   3.037  0.2747  0.1340 -0.4212
17119SOL    HW153351   2.004   1.663   3.025 -2.1596  0.8544 -1.3221
17119SOL    HW253352   1.966   1.789   3.100  0.7489  1.3446 -0.5758
17120SOL     OW53353   1.633   4.528   6.495  0.3425  0.2115 -0.0777
17120SOL    HW153354   1.714   4.479   6.511  0.0618  0.3447  2.1040
17120SOL    HW253355   1.567   4.460   6.479  0.6868  0.0659 -0.9193
17121SOL     OW53356   0.137   5.117   3.373 -0.2324  0.0632  0.1313
17121SOL    HW153357   0.173   5.090   3.289  1.0294 -0.2499  0.7491
17121SOL    HW253358   0.212   5.118   3.432 -1.4177 -2.0373  1.8480
17122SOL     OW53359   2.909   6.721   5.621  0.0200  0.5835  0.1215
17122SOL    HW153360   2.996   6.750   5.592  1.0307  0.4152  2.7089
17122SOL    HW253361   2.920   6.703   5.714 -2.7722  0.3201  0.4782
17123SOL     OW53362   1.140   3.853   2.297 -0.0304 -0.2305 -0.0450
17123SOL    HW153363   1.149   3.825   2.206 -2.2753  1.2050 -0.7833
17123SOL    HW253364   1.168   3.944   2.297  0.2411 -0.3067  0.7747
17124SOL     OW53365   5.156   0.824   4.492 -0.6285 -0.0295  0.3256
17124SOL    HW153366   5.125   0.807   4.581 -0.5527  0.8530  0.5316
17124SOL    HW253367   5.221   0.755   4.476  1.5211  1.4416  2.0702
17125SOL     OW53368   5.378   5.679   2.587  0.2369  0.2024  0.3508
17125SOL    HW153369   5.335   5.600   2.552  1.8249 -0.1879 -0.8693
17125SOL    HW253370   5.425   5.648   2.664  0.2873  0.0833  0.2750
17126SOL     OW53371   7.038   6.193   6.501  0.0774  0.2763 -0.6563
17126SOL    HW153372   7.110   6.243   6.541  0.0597 -0.7199  0.7004
17126SOL    HW253373   7.015   6.243   6.423  2.3655  0.5140 -1.2427
17127SOL     OW53374   2.258   6.394   5.975  0.5226  0.2538  0.1263
17127SOL    HW153375   2.302   6.309   5.977  0.5305  0.2535 -0.0557
17127SOL    HW253376   2.188   6.387   6.040  0.4854  0.0892  0.0665
17128SOL     OW53377   5.171   8.843   3.352  0.2768 -0.3450 -0.4509
17128SOL    HW153378   5.126   8.845   3.267  0.3616  2.4165 -0.5443
17128SOL    HW253379   5.222   8.924   3.353  2.2341 -1.5219  1.2586
17129SOL     OW53380   4.085   5.396   2.620  0.3832 -0.4768  0.0391
17129SOL    HW153381   3.995   5.417   2.592  1.2794 -0.5910 -3.3628
17129SOL    HW253382   4.099   5.306   2.590  1.2866 -0.8750  1.5866
17130SOL     OW53383   3.313   8.534   8.652 -0.0735  0.1176  0.1073
17130SOL    HW153384   3.310   8.483   8.733 -1.9005 -0.7157 -0.4277
17130SOL    HW253385   3.268   8.480   8.587 -2.0668  2.3052 -0.5203
17131SOL     OW53386   8.116   0.004   0.260 -0.0478  0.7421  0.1785
17131SOL    HW153387   8.138   0.096   0.272 -0.7320  1.0164 -0.5975
17131SOL    HW253388   8.196  -0.036   0.226 -0.3623  1.5055 -1.5774
17132SOL     OW53389   6.312   3.487   7.514 -0.4504  0.6826 -0.2121
17132SOL    HW153390   6.323   3.565   7.568  0.2599 -1.1482  2.4571
17132SOL    HW253391   6.396   3.476   7.469  0.4343 -0.0106  1.5452
17133SOL     OW53392   6.600   5.852   4.819  0.5528 -0.4890 -0.0081
17133SOL    HW153393   6.525   5.886   4.770  1.6705  2.3407  0.0430
17133SOL    HW253394   6.561   5.792   4.882 -1.6583  0.6635 -0.1436
17134SOL     OW53395   5.279   5.606   7.187 -0.1374 -0.1543  0.1704
17134SOL    HW153396   5.371   5.608   7.160  0.1876  0.8875  1.2862
17134SOL    HW253397   5.258   5.513   7.194 -0.1993 -0.5222 -3.3344
17135SOL     OW53398   1.953   8.461   3.083  0.2007  0.1055  0.0750
17135SOL    HW153399   2.006   8.421   3.151  1.4673  0.3399 -0.7342
17135SOL    HW253400   2.017   8.497   3.021 -0.8798  1.7931 -0.1403
17136SOL     OW53401   7.281   1.930   7.685 -0.1403 -0.1880 -0.4391
17136SOL    HW153402   7.201   1.927   7.632  0.0200 -2.5453 -0.6432
17136SOL    HW253403   7.313   1.840   7.686  2.2810  0.5885  0.0346
17137SOL     OW53404   7.670   5.373   0.883  0.3060  0.4260  0.4276
17137SOL    HW153405   7.742   5.410   0.832 -0.3349  1.1208  0.0113
17137SOL    HW253406   7.631   5.448   0.928  0.0630  0.0024  0.9362
17138SOL     OW53407   2.989   3.524   2.007  0.2396 -0.2908 -0.3237
17138SOL    HW153408   2.991   3.456   1.939  2.5090 -0.2438 -0.3783
17138SOL    HW253409   3.065   3.579   1.989 -0.7843  1.5061  0.5250
17139SOL     OW53410   3.557   1.182   1.443 -0.0782  0.0564 -0.0977
17139SOL    HW153411   3.557   1.111   1.380  0.7795  0.3152 -0.3961
17139SOL    HW253412   3.641   1.227   1.430 -1.0181  1.7593 -0.6429
17140SOL     OW53413   2.714   6.328   4.210  0.0743 -0.1849 -0.4941
17140SOL    HW153414   2.674   6.317   4.123 -0.4147  0.0481 -0.3021
17140SOL    HW253415   2.655   6.282   4.269 -2.1609  3.4433  0.3695
17141SOL     OW53416   1.521   8.333   2.847  0.4092 -0.5437  0.0567
17141SOL    HW153417   1.617   8.334   2.851  0.4542  0.0942 -0.8894
17141SOL    HW253418   1.494   8.346   2.938  1.2188 -0.4933  0.3024
17142SOL     OW53419   7.742   5.723   0.281 -0.4677  0.2896 -0.5289
17142SOL    HW153420   7.685   5.649   0.259  0.0505 -0.0638 -0.7174
17142SOL    HW253421   7.750   5.720   0.377 -0.2639 -0.0469 -0.5531
17143SOL     OW53422   8.831   3.944   6.040  0.6981 -0.3271  0.1835
17143SOL    HW153423   8.904   3.888   6.015 -0.5483 -1.9215 -0.0404
17143SOL    HW253424   8.785   3.894   6.108 -1.5882 -0.5272 -1.4083
17144SOL     OW53425   6.335   4.378   3.056  0.0079  0.4439 -0.1984
17144SOL    HW153426   6.296   4.456   3.095  0.1829  0.0597  0.7621
17144SOL    HW253427   6.428   4.386   3.074  0.1493  0.4572 -0.9029
17145SOL     OW53428   8.017   2.300   8.888  0.0581  0.1291 -0.0554
17145SOL    HW153429   7.949   2.318   8.954 -1.3437 -2.8845 -0.5225
17145SOL    HW253430   8.086   2.254   8.936 -0.3140 -0.7965 -0.3883
17146SOL     OW53431   6.603   6.243   8.001  0.0446 -0.2661 -0.4033
17146SOL    HW153432   6.652   6.170   7.963 -0.4706 -0.4118 -0.7942
17146SOL    HW253433   6.537   6.203   8.057 -0.7738 -0.1447 -1.2542
17147SOL     OW53434   0.734   0.785   8.084 -0.1389  0.6300  0.0765
17147SOL    HW153435   0.784   0.839   8.145 -0.0687 -0.7202  1.2571
17147SOL    HW253436   0.646   0.823   8.085 -0.0743  0.7707  0.8237
17148SOL     OW53437   2.064   4.150   8.510  0.0625 -0.0270 -0.1137
17148SOL    HW153438   2.112   4.223   8.549  1.3631 -0.4081 -0.9314
17148SOL    HW253439   2.125   4.112   8.447 -1.1202 -0.9080 -0.7782
17149SOL     OW53440   6.976   0.746   6.496 -0.2336  0.5985  0.0072
17149SOL    HW153441   6.978   0.660   6.455  0.2999  1.1039 -1.0469
17149SOL    HW253442   7.067   0.776   6.494 -0.6395  1.8641 -1.1244
17150SOL     OW53443   4.832   2.118   0.879 -0.7252 -0.1711  0.1999
17150SOL    HW153444   4.851   2.039   0.828 -0.2824  1.1461 -1.7667
17150SOL    HW253445   4.821   2.187   0.814 -2.1367  1.2133  1.8074
17151SOL     OW53446   4.099   8.710   1.302 -0.0017 -0.3883  0.6850
17151SOL    HW153447   4.141   8.786   1.262  1.8062 -0.2735  2.5983
17151SOL    HW253448   4.152   8.636   1.276 -1.8081 -1.1124 -1.2409
17152SOL     OW53449   2.658   8.330   1.533 -0.5251  0.3443  0.2015
17152SOL    HW153450   2.586   8.390   1.551 -0.1157  0.9679 -0.1886
17152SOL    HW253451   2.695   8.311   1.620  0.3800  1.9912  0.2219
17153SOL     OW53452   7.608   0.254   5.945  0.3369 -0.3258  0.8714
17153SOL    HW153453   7.525   0.298   5.927  0.5348  0.0420  0.8539
17153SOL    HW253454   7.584   0.182   6.004 -0.4049 -1.8881 -1.2448
17154SOL     OW53455   3.424   4.315   7.379  0.0967 -0.4120 -0.0985
17154SOL    HW153456   3.461   4.246   7.435  1.4004  0.0756 -0.3237
17154SOL    HW253457   3.479   4.392   7.397  0.7839 -0.3383 -2.2825
17155SOL     OW53458   4.324   5.925   4.505  0.0413  0.3896  0.1933
17155SOL    HW153459   4.277   5.851   4.467 -0.7973  1.5520 -1.0920
17155SOL    HW253460   4.260   5.996   4.508  1.4521  1.7941 -0.9050
17156SOL     OW53461   8.600   0.534   6.763  0.7805 -0.3613 -0.4692
17156SOL    HW153462   8.619   0.557   6.853  1.1070  0.4751 -0.7458
17156SOL    HW253463   8.524   0.587   6.740 -0.5144 -1.9636 -0.1063
17157SOL     OW53464   2.156   6.384   3.717 -0.8754  0.0988 -0.8579
17157SOL    HW153465   2.130   6.336   3.796 -0.0375 -3.7604 -2.6389
17157SOL    HW253466   2.074   6.404   3.673 -1.2867  1.1529  0.3258
17158SOL     OW53467   4.385   4.791   1.159  0.1146 -0.1736  0.1645
17158SOL    HW153468   4.329   4.859   1.121  1.1717 -0.3256 -1.8350
17158SOL    HW253469   4.355   4.710   1.119  1.7371 -0.2471 -1.0073
17159SOL     OW53470   7.436   1.420   4.678  0.0301  0.0983 -0.2101
17159SOL    HW153471   7.429   1.514   4.665 -0.1835  0.4061  1.8783
17159SOL    HW253472   7.375   1.401   4.750  0.8857 -1.4517  0.1499
17160SOL     OW53473   5.084   4.708   6.110  0.7696  0.2306  0.4994
17160SOL    HW153474   5.023   4.640   6.081  0.0357  1.1173 -0.0821
17160SOL    HW253475   5.082   4.774   6.041  2.2004  0.4130  0.5919
17161SOL     OW53476   0.983   0.776   3.947 -0.4683  0.5732 -0.6673
17161SOL    HW153477   1.078   0.780   3.941 -0.2959 -2.4215 -1.4526
17161SOL    HW253478   0.954   0.760   3.857 -1.4185 -1.6379 -0.0260
17162SOL     OW53479   0.335   1.820   6.671 -0.2041  0.5244  0.0993
17162SOL    HW153480   0.257   1.844   6.621  0.8424  0.9555 -1.4031
17162SOL    HW253481   0.348   1.727   6.651  1.0337  1.0175 -1.7300
17163SOL     OW53482   6.355   6.265   8.859  0.3133  0.1413  0.0050
17163SOL    HW153483   6.353   6.260   8.955 -2.8856  0.1012  0.0410
17163SOL    HW253484   6.281   6.212   8.831  0.6651  0.8661 -2.4830
17164SOL     OW53485   2.090   8.137   1.945 -0.2563  0.7106  0.3455
17164SOL    HW153486   2.165   8.197   1.946  1.6868 -1.5861  1.8222
17164SOL    HW253487   2.063   8.131   2.036 -3.5928  2.8963 -0.3234
17165SOL     OW53488   0.885   2.294   3.082 -0.0253 -0.1025  0.2023
17165SOL    HW153489   0.798   2.324   3.058 -1.5672 -2.3714  2.4108
17165SOL    HW253490   0.894   2.209   3.039 -0.4713 -1.5223  2.7048
17166SOL     OW53491   4.421   2.389   1.064 -0.2538  0.2454 -0.1070
17166SOL    HW153492   4.497   2.435   1.100 -1.8164  1.3591  1.9791
17166SOL    HW253493   4.451   2.356   0.980  3.6355 -2.3564  1.9981
17167SOL     OW53494   3.353   3.975   8.224  0.5591 -0.2942  0.2353
17167SOL    HW153495   3.318   3.892   8.257  0.3038  0.3351  1.6360
17167SOL    HW253496   3.297   4.042   8.263  0.7007  0.5490 -0.9507
17168SOL     OW53497   0.820   0.486   8.844 -0.0598  0.0689 -0.1896
17168SOL    HW153498   0.823   0.509   8.751  1.0486  0.2922 -0.1090
17168SOL    HW253499   0.732   0.512   8.872 -0.0094  1.0603 -0.9083
17169SOL     OW53500   0.997   8.879   2.122  0.0838  0.1372  0.3286
17169SOL    HW153501   0.957   8.875   2.035 -0.0034 -1.3295  0.4228
17169SOL    HW253502   1.061   8.951   2.115 -0.7800  0.8484 -0.5632
17170SOL     OW53503   5.026   6.217   2.992 -0.5101  0.4225 -0.9756
17170SOL    HW153504   5.000   6.128   3.016 -2.0525  0.9583 -0.5507
17170SOL    HW253505   5.101   6.237   3.048  0.2827 -0.8315 -1.5494
17171SOL     OW53506   1.652   8.344   3.723  0.0501  0.1967  0.2259
17171SOL    HW153507   1.710   8.321   3.796 -0.2522  0.7751  0.6544
17171SOL    HW253508   1.693   8.420   3.683  0.8177 -0.7744 -0.9248
17172SOL     OW53509   3.279   2.320   4.325 -0.4048  0.7142  0.3366
17172SOL    HW153510   3.324   2.387   4.376 -0.5723  0.4498  0.8348
17172SOL    HW253511   3.334   2.309   4.247  0.7142  0.0149  1.1882
17173SOL     OW53512   4.774   0.818   7.245  0.4057  0.1966 -1.0877
17173SOL    HW153513   4.755   0.751   7.179 -0.3389 -2.2392  1.3915
17173SOL    HW253514   4.846   0.781   7.296  0.6233  1.7577 -0.2054
17174SOL     OW53515   3.452   0.708   0.516 -0.4177 -0.4668  0.0136
17174SOL    HW153516   3.360   0.725   0.533 -0.6170 -1.2008 -0.2574
17174SOL    HW253517   3.454   0.676   0.425  0.1168 -0.3474 -0.0225
17175SOL     OW53518   8.878   1.415   4.715 -0.1066  0.0639 -0.3860
17175SOL    HW153519   8.939   1.404   4.788 -0.3954  1.3354  0.0608
17175SOL    HW253520   8.807   1.353   4.733 -0.0393  0.1723  0.2619
17176SOL     OW53521   2.006   5.360   2.340 -0.0497  0.2167  0.5929
17176SOL    HW153522   1.927   5.309   2.322 -0.0486 -0.1288  1.5130
17176SOL    HW253523   1.978   5.451   2.331  0.0729  0.0969 -1.5889
17177SOL     OW53524   0.107   6.765   7.180 -0.1004  0.8020  0.0881
17177SOL    HW153525   0.071   6.851   7.160 -0.8900  0.7659  1.2380
17177SOL    HW253526   0.134   6.771   7.272  2.1792  0.5855 -0.5116
17178SOL     OW53527   4.830   3.704   3.504  0.3458  0.1080  0.5801
17178SOL    HW153528   4.850   3.611   3.494  1.7714  0.4560 -0.0908
17178SOL    HW253529   4.760   3.707   3.570 -0.0102 -1.4488  0.3010
17179SOL     OW53530   3.895   5.805   4.497 -0.1423 -0.2099 -0.8373
17179SOL    HW153531   3.971   5.838   4.545  1.1946 -1.2681 -2.1199
17179SOL    HW253532   3.866   5.729   4.548  0.3801 -0.4831 -0.9452
17180SOL     OW53533   5.444   8.443   2.777 -0.0757 -0.0061 -0.8041
17180SOL    HW153534   5.480   8.529   2.795 -0.5830  0.3898 -1.6180
17180SOL    HW253535   5.354   8.459   2.751  0.4088 -0.5519 -3.0366
17181SOL     OW53536   7.251   3.925   7.209  0.4420 -0.1136 -0.5655
17181SOL    HW153537   7.180   3.967   7.258  0.4515 -0.4283 -0.2809
17181SOL    HW253538   7.208   3.884   7.134  0.6853  2.4003 -2.2199
17182SOL     OW53539   8.634   4.376   0.282  0.2655  0.4450  0.0550
17182SOL    HW153540   8.716   4.348   0.323  0.2893 -1.1970 -1.0284
17182SOL    HW253541   8.658   4.450   0.227  1.2207 -0.5441 -0.9073
17183SOL     OW53542   6.884   8.029   7.910 -0.0239 -0.2225 -0.0525
17183SOL    HW153543   6.842   8.005   7.993 -0.3383 -1.0477 -0.4379
17183SOL    HW253544   6.947   8.097   7.934  0.1001 -0.6580  0.9160
17184SOL     OW53545   2.755   0.706   3.231  0.3080  0.0109 -0.1533
17184SOL    HW153546   2.679   0.735   3.283  1.4849 -1.3522  2.5211
17184SOL    HW253547   2.760   0.612   3.248  1.9931 -0.0980 -1.1288
17185SOL     OW53548   6.156   2.567   0.106  0.0495 -0.6358  0.1167
17185SOL    HW153549   6.078   2.513   0.114 -0.5300  0.3058  1.2102
17185SOL    HW253550   6.196   2.564   0.193  0.9064 -0.6391 -0.2720
17186SOL     OW53551   2.903   4.374   1.560  0.1103  0.4833 -0.0442
17186SOL    HW153552   2.888   4.304   1.497 -2.7761  0.5381  0.4027
17186SOL    HW253553   2.933   4.330   1.639  1.9195  0.2163 -0.8403
17187SOL     OW53554   1.085   5.997   5.772 -0.5787 -0.2592 -0.5228
17187SOL    HW153555   1.047   5.909   5.777 -0.7165 -0.1492  0.6464
17187SOL    HW253556   1.179   5.982   5.760 -0.4916 -0.5884  0.4843
17188SOL     OW53557   2.732   1.602   6.379 -0.1663  0.2869  0.3398
17188SOL    HW153558   2.727   1.662   6.454  0.9732 -0.4439  1.0361
17188SOL    HW253559   2.701   1.518   6.413 -0.9750  0.2660 -0.4078
17189SOL     OW53560   0.481   0.871   6.161 -0.1201 -0.8790 -0.3952
17189SOL    HW153561   0.558   0.817   6.146  0.4283 -0.9619  2.1830
17189SOL    HW253562   0.500   0.917   6.243 -2.0663  0.5109 -0.6425
17190SOL     OW53563   4.153   8.613   3.967 -0.7721 -0.6038  0.5027
17190SOL    HW153564   4.134   8.612   4.061  1.0674  0.4180  0.9305
17190SOL    HW253565   4.200   8.696   3.953  0.6791 -1.6177 -0.9441
17191SOL     OW53566   3.957   8.243   3.874  0.2700 -0.2274  0.3892
17191SOL    HW153567   4.029   8.298   3.843 -0.8002 -0.2464 -2.4483
17191SOL    HW253568   3.998   8.159   3.896  1.3990  0.4950  1.1366
17192SOL     OW53569   4.095   2.866   3.819  0.0868  0.4848  0.2255
17192SOL    HW153570   4.020   2.925   3.820 -0.6668 -0.4492  0.6456
17192SOL    HW253571   4.171   2.924   3.828 -0.5177  1.5137 -1.0211
17193SOL     OW53572   2.445   0.139   2.784 -0.3280 -0.1017  0.1227
17193SOL    HW153573   2.513   0.073   2.801  0.2446  0.7950  1.4867
17193SOL    HW253574   2.369   0.107   2.832 -1.2588 -1.6116 -2.1906
17194SOL     OW53575   5.550   3.093   8.173  0.5563 -0.1580  0.6639
17194SOL    HW153576   5.529   3.114   8.081  0.5442  1.0925  0.9303
17194SOL    HW253577   5.484   3.028   8.198  1.1028 -1.2055 -0.4656
17195SOL     OW53578   4.001   0.836   2.081 -0.8109 -0.5161  0.2188
17195SOL    HW153579   4.045   0.857   2.164 -0.3241  0.7670 -0.3208
17195SOL    HW253580   3.952   0.916   2.060  0.8250  0.0580 -1.7853
17196SOL     OW53581   8.441   0.878   1.240 -0.3767 -0.3238 -0.3038
17196SOL    HW153582   8.390   0.934   1.298 -0.6523  2.3561 -2.8814
17196SOL    HW253583   8.457   0.932   1.162  2.8811 -2.4676 -1.3498
17197SOL     OW53584   6.320   2.094   1.235  0.3250  0.8603  0.0347
17197SOL    HW153585   6.279   2.163   1.286  0.6846  0.3857  0.9956
17197SOL    HW253586   6.396   2.136   1.195  0.9552  0.8608  1.1989
17198SOL     OW53587   5.048   1.775   5.885 -0.1779 -0.7234  0.5226
17198SOL    HW153588   5.123   1.813   5.932 -0.7219  0.6125  0.3491
17198SOL    HW253589   5.045   1.684   5.915 -0.1741 -0.0659  2.6715
17199SOL     OW53590   5.927   4.032   6.350  0.7957  0.2011 -0.1216
17199SOL    HW153591   5.966   3.945   6.355 -1.1693 -0.6454  2.0258
17199SOL    HW253592   5.986   4.087   6.401  1.3228 -0.1368 -0.3519
17200SOL     OW53593   2.794   7.335   8.354  0.7826  0.1128  0.0529
17200SOL    HW153594   2.879   7.338   8.397 -0.1248 -0.5676  2.0173
17200SOL    HW253595   2.764   7.244   8.366  0.0193  0.1813 -1.1195
17201SOL     OW53596   0.961   3.953   7.285 -0.2704  0.0189  0.6895
17201SOL    HW153597   1.047   3.934   7.248 -0.6980 -0.1047 -0.2677
17201SOL    HW253598   0.899   3.937   7.213 -0.9702  1.5061  0.9171
17202SOL     OW53599   2.816   0.988   3.681 -0.6452  0.6344 -0.4154
17202SOL    HW153600   2.845   0.911   3.729  0.7616  1.2717 -0.1854
17202SOL    HW253601   2.872   0.992   3.604 -0.3353  1.7155 -0.1486
17203SOL     OW53602   4.324   2.604   3.120  0.1173  0.4735 -0.3431
17203SOL    HW153603   4.353   2.596   3.210  1.3787  0.2825 -0.7531
17203SOL    HW253604   4.229   2.589   3.124  0.3214 -0.6613  0.7994
17204SOL     OW53605   7.457   3.798   2.215 -0.5483 -0.3044 -0.3312
17204SOL    HW153606   7.530   3.817   2.274 -0.1705 -0.3789 -0.7694
17204SOL    HW253607   7.390   3.759   2.271  0.7455 -2.7431 -0.3071
17205SOL     OW53608   5.003   8.161   6.492 -0.7087  0.1184 -0.1149
17205SOL    HW153609   4.940   8.215   6.445 -0.2679  0.8839  0.1519
17205SOL    HW253610   4.966   8.152   6.580 -1.6035 -1.4330 -0.6266
17206SOL     OW53611   6.290   0.861   2.280 -0.3259  0.3537  0.3026
17206SOL    HW153612   6.223   0.794   2.289 -0.2526  0.1279 -0.6895
17206SOL    HW253613   6.343   0.854   2.359  0.6377 -1.8429 -0.4650
17207SOL     OW53614   1.054   6.525   0.490 -0.2814  0.2042 -0.3653
17207SOL    HW153615   1.063   6.490   0.401 -0.7658 -3.4589  0.8620
17207SOL    HW253616   0.970   6.491   0.521 -0.0158  1.1912  1.6180
17208SOL     OW53617   8.780   6.123   0.098  0.5459 -0.1412 -0.4771
17208SOL    HW153618   8.797   6.072   0.019  0.9778  1.6391 -1.5928
17208SOL    HW253619   8.834   6.201   0.088  0.3248  0.2963  1.4176
17209SOL     OW53620   6.820   6.884   4.360 -0.1936 -0.7237  0.1726
17209SOL    HW153621   6.832   6.832   4.439  0.3528 -1.6634 -0.5077
17209SOL    HW253622   6.875   6.961   4.373  1.1586 -1.6375  0.0559
17210SOL     OW53623   6.489   4.119   5.792 -0.4711 -0.1455  0.2719
17210SOL    HW153624   6.441   4.117   5.709  0.8335  0.6805 -0.5242
17210SOL    HW253625   6.539   4.200   5.789 -0.7191  0.1009  2.0646
17211SOL     OW53626   5.551   4.850   3.998 -0.0350  0.0887  0.2644
17211SOL    HW153627   5.618   4.877   4.061  0.7659 -0.8139 -0.1804
17211SOL    HW253628   5.583   4.882   3.914  1.0882 -2.3701 -0.3345
17212SOL     OW53629   8.248   0.569   7.649  0.3867 -0.1896 -0.3089
17212SOL    HW153630   8.249   0.473   7.641  2.1853 -0.1730 -0.9523
17212SOL    HW253631   8.334   0.590   7.686  0.6067  1.2547 -1.5290
17213SOL     OW53632   7.122   6.903   8.030 -0.2158  0.1816  0.3641
17213SOL    HW153633   7.193   6.912   8.094 -0.7066 -0.9987  1.1169
17213SOL    HW253634   7.050   6.954   8.067 -0.7535 -1.1092  1.1927
17214SOL     OW53635   6.228   3.964   0.887 -0.2750 -0.3366 -0.1461
17214SOL    HW153636   6.298   3.908   0.853 -0.4361 -1.5450  1.3775
17214SOL    HW253637   6.272   4.023   0.949 -0.3521  0.1245 -0.5243
17215SOL     OW53638   0.961   6.397   4.984 -0.3628 -0.5257 -0.1543
17215SOL    HW153639   0.899   6.384   4.913 -0.7739 -1.8268  0.4111
17215SOL    HW253640   0.969   6.492   4.993  1.7315 -0.1821 -3.6642
17216SOL     OW53641   1.540   7.526   5.614  0.1455  0.2270 -0.4918
17216SOL    HW153642   1.581   7.474   5.545 -0.7036  1.7501 -2.2193
17216SOL    HW253643   1.455   7.484   5.629 -0.6015  1.1052 -1.9866
17217SOL     OW53644   1.086   0.307   7.319  0.1317 -0.7762 -0.3877
17217SOL    HW153645   0.994   0.286   7.303  0.0262  0.6285 -1.8501
17217SOL    HW253646   1.128   0.298   7.234  1.2983 -1.0388  0.1934
17218SOL     OW53647   2.290   7.627   8.605 -0.1320 -0.6460  0.0030
17218SOL    HW153648   2.380   7.614   8.575 -0.0816 -0.4656  0.0747
17218SOL    HW253649   2.298   7.645   8.698 -0.0373  1.4534 -0.3371
17219SOL     OW53650   0.264   2.325   5.866 -0.1633 -0.1578 -0.0947
17219SOL    HW153651   0.290   2.243   5.908 -1.0666  0.4098  1.6601
17219SOL    HW253652   0.256   2.303   5.773  1.4546 -1.5733  0.0536
17220SOL     OW53653   4.788   4.417   3.525 -0.5779  0.1567  0.0099
17220SOL    HW153654   4.699   4.381   3.525 -0.9439  0.9194  1.9657
17220SOL    HW253655   4.793   4.467   3.607  1.9884 -0.6611  0.4284
17221SOL     OW53656   0.115   0.560   3.371 -0.1551 -0.3168 -0.4404
17221SOL    HW153657   0.157   0.618   3.435 -0.6547 -0.0147 -0.3800
17221SOL    HW253658   0.062   0.500   3.423 -0.4276 -0.1803 -0.5599
17222SOL     OW53659   2.105   6.122   8.052 -0.3514 -0.7276  0.0416
17222SOL    HW153660   2.077   6.086   7.967 -0.3457 -1.0815  0.1876
17222SOL    HW253661   2.199   6.109   8.054 -0.3430 -0.6605  0.0751
17223SOL     OW53662   3.229   1.342   8.698 -0.2465  0.6037  0.1227
17223SOL    HW153663   3.172   1.298   8.761 -0.6490 -0.4710 -0.9510
17223SOL    HW253664   3.188   1.325   8.613  1.4926  0.0756 -0.6529
17224SOL     OW53665   1.050   5.175   7.752  0.0471  0.7760 -0.3804
17224SOL    HW153666   1.081   5.118   7.682 -1.3709  0.7787 -1.0462
17224SOL    HW253667   1.129   5.219   7.784  1.1707 -1.4890  0.1316
17225SOL     OW53668   2.273   4.585   5.603 -0.0107  0.0741 -0.0563
17225SOL    HW153669   2.362   4.605   5.630 -0.2018  1.2355 -0.2411
17225SOL    HW253670   2.233   4.543   5.680  0.6522 -0.3498  0.0616
17226SOL     OW53671   6.039   8.508   2.483 -0.1658 -0.7452 -0.4748
17226SOL    HW153672   6.117   8.558   2.507  0.0443 -0.1041 -2.3043
17226SOL    HW253673   6.039   8.434   2.543  1.6671 -0.5784 -0.1899
17227SOL     OW53674   3.612   4.391   8.704 -0.1497  0.1463  0.4320
17227SOL    HW153675   3.557   4.313   8.700 -1.8573  1.2248  1.4169
17227SOL    HW253676   3.701   4.357   8.709 -0.7949 -1.7169  0.1182
17228SOL     OW53677   0.029   0.400   0.007  0.1945  0.1974  0.2624
17228SOL    HW153678   0.067   0.476   0.052  0.3943  0.3439 -0.1518
17228SOL    HW253679   0.099   0.369  -0.050 -0.4111  0.6771 -0.7552
17229SOL     OW53680   6.260   3.741   8.604 -0.4381  0.2338  0.5516
17229SOL    HW153681   6.336   3.767   8.656  0.5737 -0.5415 -0.4856
17229SOL    HW253682   6.194   3.715   8.669  0.7979 -0.7512  1.4678
17230SOL     OW53683   0.207   3.759   2.935 -0.2003  0.1905  0.1127
17230SOL    HW153684   0.251   3.769   3.020 -0.5339  1.4424  0.1608
17230SOL    HW253685   0.117   3.789   2.951 -0.3539  0.1320 -0.6144
17231SOL     OW53686   6.804   5.751   1.084  0.0786 -0.0094  0.2860
17231SOL    HW153687   6.812   5.678   1.023  1.8858  2.2902 -2.4522
17231SOL    HW253688   6.711   5.754   1.106 -0.7997 -0.6222 -2.8848
17232SOL     OW53689   5.187   6.866   4.348  0.5977 -0.6744  0.1622
17232SOL    HW153690   5.199   6.934   4.415  2.3015 -0.3363 -0.4407
17232SOL    HW253691   5.129   6.802   4.389 -1.8989  1.5729  0.4066
17233SOL     OW53692   6.801   1.428   2.097 -0.3861  0.3936  0.1099
17233SOL    HW153693   6.813   1.364   2.026 -0.1315 -1.9634  2.1249
17233SOL    HW253694   6.883   1.423   2.147 -1.2257  0.6357  1.5666
17234SOL     OW53695   7.335   6.454   4.606  0.4062  0.3806  0.6237
17234SOL    HW153696   7.337   6.498   4.521  1.5622 -0.6764  0.0666
17234SOL    HW253697   7.251   6.479   4.644 -0.7446 -0.1654 -1.3999
17235SOL     OW53698   5.165   5.794   5.850  0.3735  0.0753  0.6286
17235SOL    HW153699   5.253   5.758   5.860 -0.9707 -3.1652  2.1842
17235SOL    HW253700   5.143   5.829   5.936  0.6048  2.2441 -0.1420
17236SOL     OW53701   8.815   1.115   7.598 -0.0960  1.0612 -0.0675
17236SOL    HW153702   8.762   1.192   7.619 -1.1282  0.0688  1.1172
17236SOL    HW253703   8.769   1.074   7.526 -0.3954  0.7329  0.3088
17237SOL     OW53704   2.915   8.767   4.784  0.3729 -0.3065 -0.1621
17237SOL    HW153705   2.902   8.789   4.692  0.2736  0.3955  0.0065
17237SOL    HW253706   2.970   8.839   4.817 -0.3836 -0.0409  0.5461
17238SOL     OW53707   3.193   8.407   4.405  0.0746  0.1410  0.1106
17238SOL    HW153708   3.287   8.412   4.387  0.2635  1.6608  1.2897
17238SOL    HW253709   3.156   8.481   4.358 -0.7253 -1.0589 -1.2168
17239SOL     OW53710   8.842   1.361   0.528  0.0560  0.6924 -0.0564
17239SOL    HW153711   8.796   1.330   0.450  0.0212 -0.1566  0.2818
17239SOL    HW253712   8.888   1.284   0.560 -2.2025  0.1837  2.3607
17240SOL     OW53713   8.623   7.624   5.178 -0.3411  0.2444  0.2667
17240SOL    HW153714   8.690   7.584   5.122 -0.2965  1.1980 -0.3755
17240SOL    HW253715   8.673   7.678   5.240 -0.4191 -0.4480  0.9569
17241SOL     OW53716   1.588   8.631   1.222 -0.2653  0.2635 -0.6009
17241SOL    HW153717   1.590   8.573   1.298 -1.1374  2.5219  1.2635
17241SOL    HW253718   1.502   8.674   1.225  0.0599  1.1641 -2.2850
17242SOL     OW53719   7.189   7.226   2.592  0.7807  0.4354 -0.3467
17242SOL    HW153720   7.245   7.150   2.575  0.3597 -0.2233  1.0651
17242SOL    HW253721   7.131   7.230   2.516  0.1327 -1.2828  0.0255
17243SOL     OW53722   1.912   6.197   0.698 -0.1669  0.3765 -0.0253
17243SOL    HW153723   1.992   6.248   0.709 -0.5132  0.8701  0.2191
17243SOL    HW253724   1.862   6.212   0.778 -0.2915 -0.3210  0.0345
17244SOL     OW53725   1.474   0.840   2.621  0.0505  0.3295 -0.1109
17244SOL    HW153726   1.443   0.928   2.604  0.7922  0.5392 -0.4176
17244SOL    HW253727   1.471   0.796   2.536  0.4941  0.3276 -0.1314
17245SOL     OW53728   5.406   4.154   0.704  0.1506  0.0120 -0.1885
17245SOL    HW153729   5.369   4.207   0.633  0.3468  1.1861  0.5542
17245SOL    HW253730   5.396   4.208   0.782  2.1541 -0.2019  0.2760
17246SOL     OW53731   5.288   5.582   1.447 -0.1015  0.2272 -0.0806
17246SOL    HW153732   5.285   5.609   1.356  0.2736  1.3541  0.2339
17246SOL    HW253733   5.378   5.598   1.475 -0.2479  0.0320  0.5303
17247SOL     OW53734   1.234   0.008   0.167 -0.1624  0.0476 -0.3453
17247SOL    HW153735   1.160  -0.054   0.161 -0.7188  0.7283 -0.6321
17247SOL    HW253736   1.257   0.027   0.076  0.5122 -0.3223 -0.2565
17248SOL     OW53737   4.883   5.495   2.704 -0.3868  0.1248  0.1982
17248SOL    HW153738   4.950   5.557   2.676  0.0700 -0.3979  0.1078
17248SOL    HW253739   4.814   5.503   2.639  1.0377 -1.7139 -1.6783
17249SOL     OW53740   0.395   1.337   3.463 -0.0117  0.0588 -0.4123
17249SOL    HW153741   0.412   1.327   3.369 -1.1949  2.8154 -1.0113
17249SOL    HW253742   0.330   1.269   3.483 -0.7891  0.3254 -1.9218
17250SOL     OW53743   5.829   8.683   5.091  0.8214  0.0724 -0.1594
17250SOL    HW153744   5.791   8.606   5.134 -0.4115  0.0205 -1.2650
17250SOL    HW253745   5.817   8.754   5.154  2.1910 -0.6591  0.9739
17251SOL     OW53746   4.580   6.343   6.143 -0.2146 -0.5371  0.4844
17251SOL    HW153747   4.547   6.397   6.072 -1.0900 -1.4170  0.2063
17251SOL    HW253748   4.664   6.309   6.111  1.7514  2.6763  1.6551
17252SOL     OW53749   0.632   2.070   8.042  0.4838  0.0766 -0.1368
17252SOL    HW153750   0.583   2.125   7.982 -0.4823  0.0494  0.5963
17252SOL    HW253751   0.567   2.039   8.105  1.3876 -0.2218  0.6847
17253SOL     OW53752   1.168   1.846   8.629  0.0886 -0.2125 -0.0721
17253SOL    HW153753   1.228   1.907   8.587 -1.5954  0.0621 -2.2176
17253SOL    HW253754   1.081   1.883   8.614 -0.8490 -2.1690  0.2546
17254SOL     OW53755   2.738   1.845   1.781  0.6207  0.1492 -0.0180
17254SOL    HW153756   2.688   1.891   1.847  0.1389 -1.2940  0.6645
17254SOL    HW253757   2.672   1.803   1.725  1.0453 -0.3622 -0.1445
17255SOL     OW53758   7.199   2.742   6.446  0.0571 -0.2008 -0.3587
17255SOL    HW153759   7.225   2.660   6.487  1.0200  0.0143 -0.5049
17255SOL    HW253760   7.119   2.721   6.397  0.7422 -1.2425 -1.0650
17256SOL     OW53761   4.445   7.225   1.036 -0.4884  0.3763 -0.0263
17256SOL    HW153762   4.467   7.226   1.129  0.7542 -0.4471 -0.2912
17256SOL    HW253763   4.502   7.158   0.998  2.0469  3.4319 -2.1153
17257SOL     OW53764   5.526   7.041   4.397  0.1134 -0.2474 -0.1290
17257SOL    HW153765   5.477   7.077   4.471 -0.3361 -1.5467  0.2398
17257SOL    HW253766   5.473   7.063   4.320  0.3707  0.7499 -0.0274
17258SOL     OW53767   4.514   2.444   2.447 -0.2156  0.1347 -0.0815
17258SOL    HW153768   4.596   2.485   2.474 -0.4297  0.7489 -0.3386
17258SOL    HW253769   4.540   2.359   2.412  0.2026 -0.1018  0.7798
17259SOL     OW53770   8.700   1.077   2.789  0.7072  0.2804 -0.3880
17259SOL    HW153771   8.720   1.038   2.705 -1.1790  0.3079 -0.8990
17259SOL    HW253772   8.624   1.134   2.772 -0.4422 -0.5791  1.5097
17260SOL     OW53773   2.807   2.437   6.065  0.0996  0.1001  0.4471
17260SOL    HW153774   2.891   2.464   6.102  1.1315 -2.0283 -0.1440
17260SOL    HW253775   2.760   2.396   6.138  0.8580 -1.3459  0.1704
17261SOL     OW53776   8.063   2.816   7.199  0.2817 -0.3964 -0.0098
17261SOL    HW153777   8.144   2.867   7.193 -0.3940  0.9116  1.2389
17261SOL    HW253778   8.091   2.732   7.236  0.8852  0.7440  2.3447
17262SOL     OW53779   2.019   6.606   8.877 -0.0457  0.1839 -0.0241
17262SOL    HW153780   1.938   6.609   8.825 -1.7515  2.3881  2.4527
17262SOL    HW253781   1.996   6.553   8.953  1.6741 -1.1014 -0.3446
17263SOL     OW53782   3.004   8.479   0.323  0.7848  0.3234 -0.5829
17263SOL    HW153783   2.983   8.461   0.232 -1.0348 -0.0666 -0.1228
17263SOL    HW253784   2.943   8.549   0.348 -1.6443 -2.2706  1.4094
17264SOL     OW53785   7.210   2.444   8.692 -0.2684  0.2323 -0.0538
17264SOL    HW153786   7.301   2.426   8.717 -0.5103 -0.9485  0.0514
17264SOL    HW253787   7.208   2.429   8.597 -0.5836 -0.8870  0.1100
17265SOL     OW53788   8.373   0.623   1.342 -0.4683  0.0581  0.2485
17265SOL    HW153789   8.294   0.601   1.293  0.0379 -0.2118 -0.4550
17265SOL    HW253790   8.344   0.629   1.433 -1.3100  0.0276 -0.0122
17266SOL     OW53791   4.470   7.067   4.331  0.6293  0.3500 -0.1326
17266SOL    HW153792   4.491   7.156   4.303 -0.6911  0.8333  0.3618
17266SOL    HW253793   4.375   7.066   4.340  0.5590 -1.3043 -0.7487
17267SOL     OW53794   2.667   5.394   8.049 -0.1606  0.2265  0.0117
17267SOL    HW153795   2.742   5.438   8.089 -0.7982  0.0321  1.4922
17267SOL    HW253796   2.685   5.396   7.955  1.6233  0.3000  0.3238
17268SOL     OW53797   0.449   3.730   0.035 -0.4417  0.3456  0.3512
17268SOL    HW153798   0.452   3.663  -0.034  1.1058  0.2876  0.4333
17268SOL    HW253799   0.399   3.802  -0.003  2.6413  1.4893 -2.0052
17269SOL     OW53800   5.893   7.411   1.038 -0.3092  0.0997  0.6776
17269SOL    HW153801   5.835   7.390   0.965  0.9122 -0.8481 -0.0675
17269SOL    HW253802   5.981   7.414   0.999  0.2940  0.2830  1.9803
17270SOL     OW53803   5.800   3.879   3.233 -0.1126  0.0071 -0.4247
17270SOL    HW153804   5.811   3.785   3.245 -0.7203 -0.0584 -0.3510
17270SOL    HW253805   5.868   3.903   3.170  0.1854 -0.4396 -0.2787
17271SOL     OW53806   5.423   2.730   1.550 -0.0532  0.2100 -0.3013
17271SOL    HW153807   5.381   2.726   1.464  0.9270  0.6744 -0.8102
17271SOL    HW253808   5.497   2.790   1.538  0.3693 -0.0858  0.7474
17272SOL     OW53809   1.038   4.779   4.244  0.0375  0.0522 -0.1618
17272SOL    HW153810   1.067   4.761   4.334  0.9673  1.0613 -0.2385
17272SOL    HW253811   1.118   4.804   4.198 -0.1996 -1.6536 -1.6177
17273SOL     OW53812   1.017   1.960   7.982 -0.9971  0.0112 -0.1816
17273SOL    HW153813   1.013   1.888   8.045 -1.9752 -0.5467 -0.8484
17273SOL    HW253814   0.975   1.925   7.903 -1.2577  1.2248 -0.6069
17274SOL     OW53815   2.840   7.683   6.737  0.1881 -0.0913 -0.2017
17274SOL    HW153816   2.818   7.720   6.822  1.1717  0.2029 -0.0656
17274SOL    HW253817   2.918   7.629   6.754  3.1196  3.3047 -1.6083
17275SOL     OW53818   0.100   2.949   0.716 -0.1867 -0.0024  1.0203
17275SOL    HW153819   0.148   2.867   0.729 -2.5995 -1.5458  1.0718
17275SOL    HW253820   0.106   2.966   0.622 -0.6635 -0.9786  0.7950
17276SOL     OW53821   1.438   0.500   6.001 -0.0502 -0.2676  0.3377
17276SOL    HW153822   1.508   0.452   5.957 -0.1442 -0.6111  0.5589
17276SOL    HW253823   1.445   0.589   5.967 -0.5620 -0.6754 -0.9068
17277SOL     OW53824   4.537   7.080   5.348  0.0775  0.0825  0.4186
17277SOL    HW153825   4.473   7.077   5.277  0.3459 -1.3329  0.2100
17277SOL    HW253826   4.621   7.058   5.306  0.6090  1.2970  0.8031
17278SOL     OW53827   4.141   4.313   6.648  0.5548  0.2477  0.1475
17278SOL    HW153828   4.145   4.339   6.740 -1.0654  1.1349  0.0148
17278SOL    HW253829   4.217   4.355   6.608  0.0892  1.6544  0.6889
17279SOL     OW53830   7.815   0.194   1.725  0.2469  0.6519 -0.4261
17279SOL    HW153831   7.785   0.163   1.811 -0.0401  1.0107 -0.3966
17279SOL    HW253832   7.816   0.289   1.732  1.3698  0.6583 -0.4417
17280SOL     OW53833   2.193   0.781   4.260  0.5613  0.3439 -0.0904
17280SOL    HW153834   2.157   0.741   4.181 -0.9009  0.7383  0.3496
17280SOL    HW253835   2.284   0.799   4.239  0.4345 -0.4252 -1.3527
17281SOL     OW53836   2.414   3.897   6.632 -0.0446 -0.1463  0.2535
17281SOL    HW153837   2.484   3.845   6.593  0.4843 -0.4851  1.6147
17281SOL    HW253838   2.387   3.847   6.708 -2.1970 -0.3150 -0.5569
17282SOL     OW53839   1.441   2.396   4.390 -0.2213 -0.1486  0.1648
17282SOL    HW153840   1.362   2.374   4.340 -0.2343 -1.0844  0.5621
17282SOL    HW253841   1.434   2.490   4.405 -0.7582 -0.0419 -0.6581
17283SOL     OW53842   5.603   5.550   3.246 -0.1832  0.2993 -0.5879
17283SOL    HW153843   5.564   5.521   3.329 -0.3091  1.1857 -0.3214
17283SOL    HW253844   5.560   5.634   3.228 -0.2994  0.0200 -1.6600
17284SOL     OW53845   7.108   5.531   7.075 -0.2326  0.3406 -0.1595
17284SOL    HW153846   7.200   5.555   7.081 -0.0018 -0.2646 -0.9829
17284SOL    HW253847   7.073   5.588   7.006 -0.6531  1.0639  0.6419
17285SOL     OW53848   1.725   3.450   5.454  0.1240 -0.0584  0.1604
17285SOL    HW153849   1.661   3.521   5.452  0.0527 -0.1239  0.0645
17285SOL    HW253850   1.809   3.493   5.438  0.1185  0.0422  0.3933
17286SOL     OW53851   2.878   5.556   0.811 -0.2252 -0.4597 -0.1076
17286SOL    HW153852   2.922   5.626   0.762  0.6518 -0.9193  0.0014
17286SOL    HW253853   2.898   5.576   0.903 -1.5778  0.2065  0.0710
17287SOL     OW53854   7.776   1.920   4.650  0.4436  0.4045 -0.3676
17287SOL    HW153855   7.690   1.879   4.638  0.4440 -0.1188  1.1196
17287SOL    HW253856   7.813   1.875   4.727  2.1056  0.5386 -1.0508
17288SOL     OW53857   4.090   5.952   2.553 -0.2584 -0.0837 -0.9676
17288SOL    HW153858   4.173   5.913   2.577 -1.1036 -1.1809  0.3108
17288SOL    HW253859   4.045   5.885   2.502 -2.2916 -1.5980  2.3879
17289SOL     OW53860   7.843   8.390   6.832  0.3981 -0.4473  0.2172
17289SOL    HW153861   7.931   8.428   6.827  0.9142 -1.6376 -0.1591
17289SOL    HW253862   7.854   8.299   6.803 -0.5904 -1.2258  2.0756
17290SOL     OW53863   5.548   1.610   3.917 -0.7194 -0.1518  0.0817
17290SOL    HW153864   5.510   1.667   3.984 -1.8193  0.9066 -1.3830
17290SOL    HW253865   5.568   1.669   3.844 -0.1079 -1.3650 -0.7682
17291SOL     OW53866   5.006   6.846   0.862 -0.3914  0.0680 -0.1875
17291SOL    HW153867   5.082   6.863   0.917 -0.3389  0.5382 -0.3961
17291SOL    HW253868   4.975   6.933   0.837 -1.3702 -0.0947  0.4031
17292SOL     OW53869   2.257   6.330   1.449  0.1640 -0.0595 -0.5729
17292SOL    HW153870   2.304   6.249   1.430  0.8496  0.2948 -0.4008
17292SOL    HW253871   2.317   6.381   1.503 -0.4060  0.4127 -0.3740
17293SOL     OW53872   7.208   3.483   2.552 -1.1392  0.0037  1.1809
17293SOL    HW153873   7.263   3.504   2.477 -2.4487 -1.0932 -0.1558
17293SOL    HW253874   7.234   3.394   2.577 -2.3016 -0.5681  0.4693
17294SOL     OW53875   0.138   2.003   8.753  0.0385  0.3338 -0.0540
17294SOL    HW153876   0.193   1.958   8.689  1.7475  1.0884  0.8142
17294SOL    HW253877   0.122   2.089   8.714  1.0536  0.7822  0.4791
17295SOL     OW53878   6.256   1.600   5.130 -0.5000 -0.2831 -0.5510
17295SOL    HW153879   6.226   1.515   5.097 -1.3175 -0.0231 -0.5050
17295SOL    HW253880   6.297   1.579   5.214 -1.5844 -0.5307 -0.0646
17296SOL     OW53881   4.256   7.988   6.982  0.2304 -0.0071  0.6706
17296SOL    HW153882   4.303   8.048   7.040 -2.6528  0.9028  2.2596
17296SOL    HW253883   4.220   8.043   6.913  2.4938 -0.8987 -1.3583
17297SOL     OW53884   6.773   0.995   2.424 -0.2065 -0.2355 -0.6336
17297SOL    HW153885   6.752   0.936   2.497  1.2628 -0.0876 -0.0561
17297SOL    HW253886   6.729   1.077   2.446 -0.1340 -0.3270 -0.1357
17298SOL     OW53887   4.325   5.778   6.569 -0.0748 -0.3692  0.5500
17298SOL    HW153888   4.301   5.811   6.655 -0.3384 -1.4835  0.9209
17298SOL    HW253889   4.264   5.820   6.508  0.4907  0.8808  0.8105
17299SOL     OW53890   8.418   5.768   7.370  0.5729  0.1286  0.2253
17299SOL    HW153891   8.369   5.688   7.353 -0.9449  1.2964 -1.2775
17299SOL    HW253892   8.484   5.743   7.435 -0.8233 -1.9535  0.9422
17300SOL     OW53893   1.826   2.521   0.785 -0.0377 -0.0722 -0.1752
17300SOL    HW153894   1.769   2.444   0.793  1.3505 -1.1510 -0.3023
17300SOL    HW253895   1.784   2.574   0.717 -0.7536 -0.9645 -0.4615
17301SOL     OW53896   2.758   5.052   3.482 -0.0856  0.1556  0.4052
17301SOL    HW153897   2.765   5.011   3.395 -0.7230 -0.3844  0.6032
17301SOL    HW253898   2.834   5.110   3.487  1.0586 -1.2824  0.2708
17302SOL     OW53899   1.479   1.446   7.510  0.2375 -0.2265 -0.2019
17302SOL    HW153900   1.410   1.510   7.527  0.2676 -0.2015 -0.1725
17302SOL    HW253901   1.518   1.430   7.596  0.9143  0.4957 -0.3686
17303SOL     OW53902   2.516   6.526   6.618 -0.2575 -0.0485 -0.2017
17303SOL    HW153903   2.433   6.557   6.655 -0.4061 -0.6787  0.0090
17303SOL    HW253904   2.491   6.484   6.536  0.2031  2.4119 -1.6905
17304SOL     OW53905   7.706   8.105   7.844 -0.0004 -0.6191  0.3075
17304SOL    HW153906   7.737   8.027   7.890  0.7602 -1.5325 -1.6092
17304SOL    HW253907   7.707   8.080   7.751 -1.2859  1.1604 -0.2500
17305SOL     OW53908   7.708   4.319   3.042  0.5175  0.0683  0.2194
17305SOL    HW153909   7.802   4.300   3.039  0.2725 -1.2417  0.3122
17305SOL    HW253910   7.684   4.308   3.134  0.1426 -0.2605  0.0833
17306SOL     OW53911   8.592   4.966   7.404  0.1245 -0.2759  0.8829
17306SOL    HW153912   8.589   4.899   7.336 -1.0122 -1.9132  2.4489
17306SOL    HW253913   8.558   5.045   7.361 -1.0448 -1.3804 -0.3397
17307SOL     OW53914   4.995   2.140   3.216 -0.0068  0.3251 -0.3007
17307SOL    HW153915   4.948   2.218   3.188 -1.2766 -0.3522 -0.1270
17307SOL    HW253916   4.944   2.106   3.290 -0.0903 -1.2282 -1.0181
17308SOL     OW53917   1.378   2.336   3.216  0.1851  0.4848  0.7287
17308SOL    HW153918   1.342   2.268   3.273 -1.7799  1.0578  0.2449
17308SOL    HW253919   1.309   2.352   3.151  1.2471  1.8124 -0.1244
17309SOL     OW53920   7.526   6.290   4.714  0.0893 -0.7193 -0.0947
17309SOL    HW153921   7.493   6.232   4.782 -0.0597  0.6478  1.0384
17309SOL    HW253922   7.449   6.338   4.685  0.2241 -1.0187 -0.9764
17310SOL     OW53923   6.150   2.137   4.145 -0.3720  0.4706  0.1204
17310SOL    HW153924   6.070   2.084   4.142 -0.0970  0.0890 -0.7093
17310SOL    HW253925   6.122   2.220   4.184 -0.4749 -0.8306  3.0641
17311SOL     OW53926   5.938   0.452   2.145  0.8477  0.0952 -0.5850
17311SOL    HW153927   5.965   0.398   2.070  0.0601 -0.2205 -0.6524
17311SOL    HW253928   5.939   0.391   2.219 -1.5804 -0.4606 -0.9351
17312SOL     OW53929   6.314   4.442   2.716  0.3394  0.0835 -0.0661
17312SOL    HW153930   6.384   4.397   2.763 -1.8678 -1.2655  2.2213
17312SOL    HW253931   6.274   4.375   2.662 -0.4696  0.2672  0.2800
17313SOL     OW53932   6.882   4.668   0.938  0.3248  0.4216 -0.2959
17313SOL    HW153933   6.972   4.641   0.956  0.3577 -0.7002 -1.9271
17313SOL    HW253934   6.889   4.719   0.856 -0.3987  1.2202  0.1250
17314SOL     OW53935   0.126   3.395   3.136  0.0445  0.1092  0.2063
17314SOL    HW153936   0.127   3.301   3.156  0.3129  0.1463  0.3770
17314SOL    HW253937   0.203   3.429   3.181  0.2482  0.3214 -0.3048
17315SOL     OW53938   8.663   1.714   6.109  0.1026 -0.1250 -0.0357
17315SOL    HW153939   8.614   1.661   6.172 -0.1310 -1.8713 -1.5910
17315SOL    HW253940   8.752   1.679   6.111  0.4322  0.6875  0.2323
17316SOL     OW53941   1.034   8.388   5.961  0.4828 -0.4496  1.0829
17316SOL    HW153942   1.091   8.367   5.887  0.5901  2.3890  0.2701
17316SOL    HW253943   1.070   8.469   5.997 -1.6680  0.1479  2.0364
17317SOL     OW53944   4.202   1.868   6.482 -0.9657  0.1787 -0.3364
17317SOL    HW153945   4.220   1.871   6.576  2.8824  0.7039 -0.9425
17317SOL    HW253946   4.201   1.959   6.454 -1.2215 -0.0122 -0.9779
17318SOL     OW53947   6.930   1.626   6.575 -0.1992  0.4482  0.0332
17318SOL    HW153948   6.863   1.618   6.643 -0.5514  2.6869  0.0371
17318SOL    HW253949   6.888   1.591   6.496 -1.7096  2.4332 -0.1301
17319SOL     OW53950   8.033   5.101   5.166 -0.9470  0.0343 -0.0890
17319SOL    HW153951   7.938   5.090   5.161 -1.0493  0.4877  0.7486
17319SOL    HW253952   8.056   5.072   5.254 -0.2726 -0.2908 -0.3691
17320SOL     OW53953   5.467   3.536   7.249 -0.6124 -0.5081  0.5539
17320SOL    HW153954   5.516   3.552   7.168 -0.2771 -0.2636  0.8046
17320SOL    HW253955   5.491   3.446   7.273  0.2578 -0.1596  1.0428
17321SOL     OW53956   8.091   5.120   4.895  0.0360 -0.2759 -0.0650
17321SOL    HW153957   8.166   5.067   4.870  0.2785 -0.0698  0.2174
17321SOL    HW253958   8.107   5.142   4.987  1.2593  2.4987 -0.8729
17322SOL     OW53959   8.070   1.383   0.612 -0.4551  0.4002 -0.1549
17322SOL    HW153960   8.093   1.306   0.664  0.4455  1.9945  1.9656
17322SOL    HW253961   8.155   1.418   0.582 -0.5610  2.0697  1.2942
17323SOL     OW53962   6.310   1.905   0.806  0.1951 -0.0341  0.4239
17323SOL    HW153963   6.237   1.967   0.814 -0.5888 -0.5885 -1.7832
17323SOL    HW253964   6.387   1.959   0.790 -0.3010  0.4422 -0.4085
17324SOL     OW53965   6.322   1.436   1.299 -0.3031  0.2213  0.4184
17324SOL    HW153966   6.351   1.508   1.243  0.8147  1.6043  2.6358
17324SOL    HW253967   6.283   1.479   1.375  1.9371 -1.4003  2.6301
17325SOL     OW53968   3.410   8.316   1.588  0.5107 -0.0058  0.1244
17325SOL    HW153969   3.396   8.390   1.530 -0.0540 -1.2143 -1.3476
17325SOL    HW253970   3.503   8.319   1.609  0.6384  0.7086 -0.5142
17326SOL     OW53971   5.336   2.142   4.265  0.0603  0.0871 -0.1426
17326SOL    HW153972   5.355   2.056   4.304  0.1726 -0.1520 -0.7154
17326SOL    HW253973   5.266   2.125   4.203 -1.7537  0.8715  1.5887
17327SOL     OW53974   8.460   4.027   7.925  0.3101  0.4023 -0.4378
17327SOL    HW153975   8.479   3.952   7.982 -0.0044  1.4562  1.1138
17327SOL    HW253976   8.490   3.999   7.839  0.5358 -1.3712  0.1615
17328SOL     OW53977   8.000   7.987   1.011 -0.2500  0.0399 -0.6959
17328SOL    HW153978   8.033   7.904   0.976 -1.0913 -1.0919  1.0452
17328SOL    HW253979   7.959   8.030   0.937  1.2050 -0.5632 -1.8938
17329SOL     OW53980   0.005   3.373   4.361  0.1734  0.1026 -0.5510
17329SOL    HW153981  -0.082   3.333   4.355  0.1918 -0.3916  1.6969
17329SOL    HW253982   0.066   3.300   4.351  0.2928  0.1338 -0.0405
17330SOL     OW53983   6.736   7.831   2.136  0.1725 -0.4229  0.1705
17330SOL    HW153984   6.779   7.788   2.210  1.0351  0.5707  0.2671
17330SOL    HW253985   6.784   7.913   2.124 -2.9945  1.8736  1.6842
17331SOL     OW53986   2.870   2.068   3.659 -0.0908 -0.1332 -0.3869
17331SOL    HW153987   2.817   2.032   3.588  0.5085  1.9256 -1.9987
17331SOL    HW253988   2.958   2.034   3.644 -0.2620 -0.9316  0.3349
17332SOL     OW53989   6.974   1.392   6.828  0.6079  0.1309  0.4937
17332SOL    HW153990   6.911   1.368   6.760  0.8767 -0.1123  0.3261
17332SOL    HW253991   7.026   1.313   6.840  2.0261  0.8462 -0.6292
17333SOL     OW53992   2.944   3.753   5.282 -0.5205 -0.0799  0.3995
17333SOL    HW153993   3.036   3.727   5.281  0.1833  2.1536  1.1255
17333SOL    HW253994   2.936   3.815   5.209 -0.5859  2.2056  2.2454
17334SOL     OW53995   3.326   6.178   0.489 -0.7251 -0.0348  0.2580
17334SOL    HW153996   3.234   6.178   0.463 -1.1766  0.1813  1.7473
17334SOL    HW253997   3.351   6.270   0.491 -0.6599 -0.0559  0.4587
17335SOL     OW53998   5.447   1.681   6.984 -0.3835 -0.1848  0.0450
17335SOL    HW153999   5.467   1.768   6.950 -0.6205 -0.4766 -0.8444
17335SOL    HW254000   5.466   1.688   7.078  1.9129  0.1430 -0.3812
17336SOL     OW54001   8.472   3.696   3.058  0.1083  0.5358 -0.1055
17336SOL    HW154002   8.433   3.620   3.101  1.0548 -0.4882 -1.0266
17336SOL    HW254003   8.535   3.730   3.121  1.2084 -0.7272 -0.4807
17337SOL     OW54004   8.049   2.694   6.922 -0.5234 -0.4160  0.2115
17337SOL    HW154005   8.026   2.748   6.846  1.9522 -0.7029 -0.8269
17337SOL    HW254006   8.063   2.757   6.992 -2.9200 -0.1525  0.5672
17338SOL     OW54007   6.942   6.551   1.106 -0.5159  0.7718 -0.7663
17338SOL    HW154008   6.993   6.480   1.145  0.6479  1.1579 -1.5276
17338SOL    HW254009   6.868   6.508   1.064  0.1860 -0.0024 -1.2371
17339SOL     OW54010   4.847   4.988   6.329  0.4032 -0.0988 -0.0307
17339SOL    HW154011   4.774   4.979   6.267 -0.8005 -0.3334  1.3868
17339SOL    HW254012   4.863   4.899   6.361 -0.7849  0.3616  1.9758
17340SOL     OW54013   2.374   8.276   6.417  0.6561  0.4416  0.5888
17340SOL    HW154014   2.412   8.364   6.416  0.7564  0.3995  0.7265
17340SOL    HW254015   2.417   8.232   6.490 -1.4178  1.1943  2.3772
17341SOL     OW54016   7.328   3.864   5.173 -0.2779 -0.1431  0.3886
17341SOL    HW154017   7.276   3.918   5.233  0.2863  0.6272  0.2009
17341SOL    HW254018   7.403   3.837   5.226 -0.4605 -0.5846  0.4233
17342SOL     OW54019   2.224   8.055   3.939  0.0226  0.7622 -0.5539
17342SOL    HW154020   2.159   8.125   3.934  0.8147  1.4506 -1.7541
17342SOL    HW254021   2.267   8.056   3.853  1.1988 -0.0765 -0.0067
17343SOL     OW54022   2.040   4.614   3.938  0.2330  0.3247  0.3463
17343SOL    HW154023   2.000   4.698   3.960 -0.4742  0.5660 -1.5903
17343SOL    HW254024   2.107   4.636   3.874  1.5565 -0.3918  1.4470
17344SOL     OW54025   0.425   3.196   5.141 -0.2182 -0.0449 -0.5144
17344SOL    HW154026   0.339   3.166   5.114 -0.1959  0.0962 -0.7483
17344SOL    HW254027   0.424   3.291   5.124  0.7162 -0.3408 -2.6005
17345SOL     OW54028   5.633   4.958   8.571 -0.5501  0.4141  0.3607
17345SOL    HW154029   5.595   5.041   8.540  0.3664  1.6460  2.3138
17345SOL    HW254030   5.574   4.930   8.641 -0.0745  0.2208  0.6908
17346SOL     OW54031   2.131   1.717   4.077 -0.3187  1.0012 -0.4224
17346SOL    HW154032   2.114   1.644   4.136  0.5797  1.0333 -0.1135
17346SOL    HW254033   2.080   1.697   3.999 -1.0533  0.6652  0.1330
17347SOL     OW54034   7.685   0.794   2.099 -0.4853  0.6526  0.2509
17347SOL    HW154035   7.754   0.748   2.051 -1.0778  0.6848 -0.6581
17347SOL    HW254036   7.643   0.851   2.034 -2.3868 -0.5102  0.3590
17348SOL     OW54037   6.491   7.425   4.111  0.0404  0.2782 -0.1934
17348SOL    HW154038   6.571   7.477   4.117 -0.3114  1.1922 -2.4357
17348SOL    HW254039   6.423   7.488   4.088 -1.1211 -0.6689  0.4862
17349SOL     OW54040   7.633   0.549   0.681 -0.5535 -0.7706 -0.0285
17349SOL    HW154041   7.539   0.528   0.677 -1.1078  1.6734 -1.9616
17349SOL    HW254042   7.664   0.539   0.592  1.0847 -1.6408  0.6156
17350SOL     OW54043   5.081   4.867   6.623 -0.3503  0.3570 -0.4594
17350SOL    HW154044   5.095   4.847   6.530  0.2077 -0.1638 -0.2744
17350SOL    HW254045   5.101   4.960   6.631 -1.8026  0.7618 -1.1202
17351SOL     OW54046   7.410   1.729   8.287 -0.7283  0.3412 -0.2230
17351SOL    HW154047   7.489   1.753   8.335 -2.5215  2.5097  1.9054
17351SOL    HW254048   7.427   1.641   8.254  1.6270 -0.2261  2.1992
17352SOL     OW54049   6.820   4.646   6.394  0.2391  0.4619 -0.0796
17352SOL    HW154050   6.893   4.593   6.361 -0.2515  0.0782 -0.5731
17352SOL    HW254051   6.781   4.594   6.463 -1.1955 -0.5653 -1.5837
17353SOL     OW54052   7.034   4.637   3.095 -0.5732 -0.0969 -0.6507
17353SOL    HW154053   6.982   4.717   3.106  0.9650  1.0912 -1.6875
17353SOL    HW254054   7.119   4.658   3.132 -0.0566 -1.1873 -1.1698
17354SOL     OW54055   4.575   2.812   7.205  0.4057 -0.6882  0.6250
17354SOL    HW154056   4.619   2.860   7.135 -0.1046  0.5108  1.1000
17354SOL    HW254057   4.615   2.725   7.203  1.0906 -0.3725 -0.5049
17355SOL     OW54058   4.353   3.010   7.750 -0.6077 -0.7120  0.2218
17355SOL    HW154059   4.315   3.004   7.837 -1.2986 -1.0521 -0.1001
17355SOL    HW254060   4.282   3.039   7.694  0.4516  2.1927  0.1871
17356SOL     OW54061   4.629   7.044   0.969 -0.2318 -0.0112  0.0147
17356SOL    HW154062   4.724   7.052   0.981 -0.1683 -0.0846 -0.4479
17356SOL    HW254063   4.619   6.996   0.887 -0.6651 -0.7424  0.4846
17357SOL     OW54064   4.612   4.009   1.888  0.4445  0.8778  0.2505
17357SOL    HW154065   4.644   3.995   1.799  0.3335 -1.7734  0.5346
17357SOL    HW254066   4.673   4.072   1.927  1.3668  0.9455 -1.2320
17358SOL     OW54067   7.420   7.655   6.675 -0.0184 -0.0321 -0.5061
17358SOL    HW154068   7.474   7.731   6.655 -0.0293 -0.1601 -1.0522
17358SOL    HW254069   7.454   7.587   6.616 -1.4359  0.1658 -1.6072
17359SOL     OW54070   4.907   2.367   3.136 -0.1835  0.0293 -0.1567
17359SOL    HW154071   4.990   2.407   3.162  0.0794  0.3142 -1.3944
17359SOL    HW254072   4.924   2.329   3.050 -1.2023 -0.3511 -0.2076
17360SOL     OW54073   3.063   8.173   4.392 -0.3867  0.1680 -0.4165
17360SOL    HW154074   3.008   8.199   4.466 -0.0535 -3.8778  1.5316
17360SOL    HW254075   3.127   8.244   4.384 -1.9912  1.9508  1.4396
17361SOL     OW54076   2.468   7.992   7.671  0.5563 -0.4091 -0.0448
17361SOL    HW154077   2.467   7.967   7.764 -0.8440  0.0908  0.1041
17361SOL    HW254078   2.419   8.074   7.669 -0.7277 -1.1760 -1.4269
17362SOL     OW54079   5.681   4.409   3.107  0.5953  0.4620  0.1650
17362SOL    HW154080   5.728   4.332   3.139  0.6749  0.1946 -0.5804
17362SOL    HW254081   5.723   4.431   3.024 -0.0985  0.6839 -0.1357
17363SOL     OW54082   7.381   1.245   2.325  0.0411 -0.3833  0.2843
17363SOL    HW154083   7.384   1.161   2.371 -0.3036 -1.0733 -0.8926
17363SOL    HW254084   7.366   1.221   2.233  1.2368  0.9134 -0.2873
17364SOL     OW54085   5.438   1.386   4.470 -0.0487 -0.0055 -0.7281
17364SOL    HW154086   5.451   1.435   4.552 -1.1271 -2.0197  0.7189
17364SOL    HW254087   5.508   1.321   4.470 -0.2269 -0.2006 -1.2704
17365SOL     OW54088   4.596   8.697   5.472 -0.1538  0.0987 -0.1635
17365SOL    HW154089   4.619   8.735   5.386 -0.3384 -0.5696 -0.5132
17365SOL    HW254090   4.521   8.750   5.501 -1.8206 -1.3083 -1.6421
17366SOL     OW54091   2.837   3.998   4.363 -0.3595 -0.0682  0.3945
17366SOL    HW154092   2.853   4.028   4.274 -0.5492  1.5599  0.8720
17366SOL    HW254093   2.818   3.905   4.354  0.8890 -0.2127 -1.1037
17367SOL     OW54094   1.214   3.495   2.030 -0.8233 -0.2490 -0.2268
17367SOL    HW154095   1.220   3.588   2.051  0.4357 -0.2095 -0.6935
17367SOL    HW254096   1.199   3.492   1.936 -1.7344 -0.5166 -0.0866
17368SOL     OW54097   3.249   8.778   8.751  0.1560  0.0249  0.2041
17368SOL    HW154098   3.172   8.824   8.720  1.9428  2.5519 -0.8558
17368SOL    HW254099   3.257   8.701   8.693 -0.7400  0.5459 -0.6306
17369SOL     OW54100   0.105   7.456   1.907 -0.0549 -0.2712  0.1798
17369SOL    HW154101   0.065   7.404   1.977  0.1469  0.5026  0.8901
17369SOL    HW254102   0.167   7.513   1.952 -0.4453  0.7609 -0.5452
17370SOL     OW54103   4.515   2.576   5.959 -0.1747 -0.2108  0.6937
17370SOL    HW154104   4.477   2.610   5.878 -0.3929 -1.4379  0.2566
17370SOL    HW254105   4.609   2.581   5.946 -0.1952  0.6601  0.8364
17371SOL     OW54106   3.380   5.359   6.624  0.2059 -0.5408  0.1537
17371SOL    HW154107   3.449   5.372   6.558 -0.7300 -2.3024 -1.2821
17371SOL    HW254108   3.325   5.289   6.587 -2.1163  0.5087  1.4402
17372SOL     OW54109   5.542   4.803   3.615 -0.3767  0.2895 -0.7208
17372SOL    HW154110   5.532   4.777   3.524 -1.4555  0.1958 -0.5855
17372SOL    HW254111   5.546   4.720   3.663 -0.3308  0.3425 -0.6324
17373SOL     OW54112   1.161   1.625   0.518 -0.1805  0.6375 -0.2289
17373SOL    HW154113   1.202   1.692   0.464  1.2270 -1.1370 -1.5172
17373SOL    HW254114   1.151   1.550   0.459 -2.2325 -0.1316  0.9806
17374SOL     OW54115   1.400   1.655   4.573  0.3800 -0.6849 -0.2257
17374SOL    HW154116   1.417   1.604   4.652  2.6202 -0.0147 -0.2019
17374SOL    HW254117   1.371   1.590   4.508 -2.7711 -1.0837  1.3963
17375SOL     OW54118   4.618   5.353   1.893  0.0293  0.0751  0.4116
17375SOL    HW154119   4.573   5.367   1.976 -3.0252 -0.5133 -1.0077
17375SOL    HW254120   4.577   5.415   1.832  1.2186 -0.4667 -1.0186
17376SOL     OW54121   7.808   1.977   5.143  0.3640  0.5133 -0.0333
17376SOL    HW154122   7.745   2.034   5.098  1.7053  0.7964 -1.6421
17376SOL    HW254123   7.861   2.037   5.196  0.7587  0.5640 -0.4854
17377SOL     OW54124   2.805   4.738   3.064  0.1824  0.0494 -0.0465
17377SOL    HW154125   2.883   4.710   3.015  2.0509  1.3875  1.9657
17377SOL    HW254126   2.734   4.735   3.000  1.9280 -0.9294 -2.0638
17378SOL     OW54127   7.991   0.314   7.483  0.7734 -0.6965 -0.0395
17378SOL    HW154128   7.996   0.311   7.579 -0.6969 -0.7115  0.0582
17378SOL    HW254129   7.943   0.395   7.465  1.8666 -0.1989 -0.8205
17379SOL     OW54130   3.940   6.095   1.143 -0.2872 -0.6414 -0.1784
17379SOL    HW154131   3.895   6.024   1.098  1.5001 -1.6740 -0.4540
17379SOL    HW254132   3.915   6.174   1.096 -0.2397 -1.4297 -1.5789
17380SOL     OW54133   3.099   2.228   2.055 -0.0084  0.1825 -0.4304
17380SOL    HW154134   3.107   2.145   2.102  0.3236 -0.0285 -0.8570
17380SOL    HW254135   3.062   2.205   1.970  1.2932  0.2905 -1.0478
17381SOL     OW54136   2.694   1.501   6.768  0.0158 -0.2223 -0.2066
17381SOL    HW154137   2.642   1.456   6.701 -2.0942  1.2558  0.3059
17381SOL    HW254138   2.640   1.577   6.792  0.8703 -0.4375  2.8381
17382SOL     OW54139   0.339   2.336   6.230  0.1740 -0.2428  0.1948
17382SOL    HW154140   0.419   2.375   6.194  0.4590  0.9676  2.0125
17382SOL    HW254141   0.328   2.378   6.315 -1.3275 -1.8325  0.8460
17383SOL     OW54142   2.335   5.575   0.292  0.0207 -0.3903  0.2056
17383SOL    HW154143   2.386   5.595   0.213 -0.9569 -1.4807 -0.7303
17383SOL    HW254144   2.392   5.603   0.364  1.1169  0.2390 -0.8524
17384SOL     OW54145   4.011   5.864   5.620  0.1747  0.2495  0.3306
17384SOL    HW154146   4.034   5.901   5.535  1.1246  1.2848  0.9992
17384SOL    HW254147   4.016   5.939   5.681 -1.6680 -0.2063  1.1142
17385SOL     OW54148   4.225   6.737   4.528  0.1310 -0.0647 -0.1542
17385SOL    HW154149   4.240   6.658   4.476  2.4056  0.5605 -0.5364
17385SOL    HW254150   4.290   6.733   4.598 -2.1683 -0.3504  2.1567
17386SOL     OW54151   3.178   6.653   4.930  0.5904  0.0595  0.0549
17386SOL    HW154152   3.133   6.690   5.006  1.5591  1.8722 -0.1977
17386SOL    HW254153   3.211   6.569   4.961  0.5727  0.5543  1.5013
17387SOL     OW54154   4.714   2.200   7.183  0.3993  0.2017 -0.7007
17387SOL    HW154155   4.686   2.231   7.097  2.3504  1.4266 -0.9701
17387SOL    HW254156   4.809   2.190   7.175  0.6904  0.7388  1.4267
17388SOL     OW54157   5.163   0.553   1.605 -0.3346 -0.0034 -0.0619
17388SOL    HW154158   5.144   0.551   1.511 -1.1928  0.5188  0.0858
17388SOL    HW254159   5.253   0.586   1.611 -0.8570  1.6578 -0.6560
17389SOL     OW54160   6.521   6.191   1.877 -0.0706  0.1935  0.5577
17389SOL    HW154161   6.591   6.236   1.829  1.3663 -0.9423  1.4943
17389SOL    HW254162   6.481   6.133   1.813 -2.9837  3.6669 -1.1157
17390SOL     OW54163   8.521   0.573   6.394  0.1161 -0.5401  0.1651
17390SOL    HW154164   8.496   0.574   6.486  0.0268  0.1785  0.1432
17390SOL    HW254165   8.616   0.585   6.395  0.1906 -1.1294  0.1817
17391SOL     OW54166   4.134   4.448   6.281 -0.0987  0.1315 -0.0370
17391SOL    HW154167   4.202   4.432   6.347  1.0329 -1.6989 -1.5333
17391SOL    HW254168   4.093   4.362   6.267 -1.6894  0.8895 -0.3070
17392SOL     OW54169   5.200   3.324   1.927  0.4623 -0.3053  0.2320
17392SOL    HW154170   5.150   3.382   1.983 -0.7382 -0.4249 -0.6721
17392SOL    HW254171   5.291   3.337   1.953  0.0439  0.5632  1.3184
17393SOL     OW54172   8.670   5.588   0.248  1.2622  0.3088 -0.1638
17393SOL    HW154173   8.756   5.548   0.256  1.4288  1.0559  3.8497
17393SOL    HW254174   8.688   5.681   0.232  1.2505  0.4869  0.7986
17394SOL     OW54175   3.106   6.325   0.291 -0.1578 -0.7078 -0.0765
17394SOL    HW154176   3.074   6.401   0.244 -1.3969 -0.1180  1.6332
17394SOL    HW254177   3.156   6.361   0.365 -0.7165 -1.5309  0.7291
17395SOL     OW54178   5.990   5.080   6.934  0.1349  0.6228 -0.3901
17395SOL    HW154179   6.004   5.059   6.842 -0.1784 -1.1622 -0.0634
17395SOL    HW254180   6.068   5.047   6.979 -0.9100 -1.0833  0.2927
17396SOL     OW54181   5.397   4.340   8.176  0.5178 -0.0523  0.2304
17396SOL    HW154182   5.324   4.344   8.113 -0.9265  1.4544  1.8921
17396SOL    HW254183   5.474   4.362   8.124 -0.2066 -1.4254 -1.5306
17397SOL     OW54184   4.796   4.415   6.123 -0.1490 -0.1331  0.2445
17397SOL    HW154185   4.886   4.408   6.155 -0.1040  1.3501  0.5370
17397SOL    HW254186   4.782   4.509   6.114 -1.3139 -0.3869 -0.8503
17398SOL     OW54187   6.743   6.668   0.550 -0.0625  0.0863 -0.2094
17398SOL    HW154188   6.698   6.588   0.522 -0.6647  0.0019  0.9484
17398SOL    HW254189   6.695   6.739   0.507  2.4713 -0.1942 -4.0396
17399SOL     OW54190   0.068   7.744   5.138  0.1005  1.1163  0.4486
17399SOL    HW154191   0.097   7.740   5.229 -2.6386 -0.0167  1.3719
17399SOL    HW254192   0.082   7.655   5.105  0.9557  1.4882 -0.2114
17400SOL     OW54193   4.242   0.897   3.515 -0.3863  0.3306 -0.1008
17400SOL    HW154194   4.206   0.850   3.591  0.5367 -2.2802 -1.1625
17400SOL    HW254195   4.336   0.904   3.534 -0.2416  0.1446 -0.7371
17401SOL     OW54196   6.708   5.095   7.311 -0.4246 -0.2251 -0.0261
17401SOL    HW154197   6.625   5.135   7.285 -0.9979 -1.7304 -0.6784
17401SOL    HW254198   6.723   5.027   7.245  1.4808  0.1812 -0.0670
17402SOL     OW54199   5.675   3.048   5.168  0.1748 -0.1641 -0.0769
17402SOL    HW154200   5.620   3.125   5.151  2.4562  1.4830 -0.5588
17402SOL    HW254201   5.733   3.042   5.091  0.5161 -1.9748  0.2695
17403SOL     OW54202   5.855   2.931   2.270  0.1449 -0.2629 -0.6065
17403SOL    HW154203   5.836   2.837   2.265  1.0022 -0.7893  3.1819
17403SOL    HW254204   5.771   2.972   2.287  0.0046 -0.5450 -0.6165
17404SOL     OW54205   5.419   0.650   1.644 -0.0777  0.3695 -0.0833
17404SOL    HW154206   5.476   0.681   1.574  0.0118 -0.6708 -0.4766
17404SOL    HW254207   5.472   0.587   1.693 -0.9134 -0.6991 -0.5251
17405SOL     OW54208   7.295   5.819   5.594  0.2336  0.2198  0.2301
17405SOL    HW154209   7.330   5.904   5.568  1.5045  0.3363  2.1077
17405SOL    HW254210   7.268   5.831   5.685  0.5840 -1.4095  0.5839
17406SOL     OW54211   5.760   6.224   2.937  0.3179 -0.0034  0.3882
17406SOL    HW154212   5.749   6.214   2.842  2.4133 -0.1167  0.1121
17406SOL    HW254213   5.792   6.139   2.966  1.7357  0.6462  0.8226
17407SOL     OW54214   0.800   7.099   5.564 -0.5710  0.2633 -0.1925
17407SOL    HW154215   0.805   7.174   5.505  1.2941 -0.0956 -0.5533
17407SOL    HW254216   0.890   7.086   5.594 -0.9982 -1.3279  0.4973
17408SOL     OW54217   8.771   2.952   8.846  0.4235 -0.2976  0.0187
17408SOL    HW154218   8.718   3.027   8.818  0.1270  0.0819  1.5093
17408SOL    HW254219   8.706   2.885   8.867  0.5790 -0.2265  0.7419
17409SOL     OW54220   0.966   0.841   6.814 -0.1946 -0.2734  0.0135
17409SOL    HW154221   0.980   0.881   6.900  1.2785  1.3122 -0.9226
17409SOL    HW254222   0.874   0.860   6.794  0.0972  1.5202  0.2009
17410SOL     OW54223   0.031   7.016   3.996 -0.7706  0.0335  0.7997
17410SOL    HW154224   0.124   7.034   3.980 -0.5352 -2.2648 -0.9987
17410SOL    HW254225   0.027   6.995   4.089  0.8571 -1.4237  0.5934
17411SOL     OW54226   1.713   0.585   2.385  0.1296 -0.0819 -0.3054
17411SOL    HW154227   1.620   0.601   2.374 -0.0980 -0.9479  0.1917
17411SOL    HW254228   1.718   0.496   2.421  1.2230 -0.7734 -2.0223
17412SOL     OW54229   6.517   7.075   5.908 -0.1773  0.4702 -0.6873
17412SOL    HW154230   6.442   7.020   5.886 -0.0427  0.4581 -1.1203
17412SOL    HW254231   6.481   7.144   5.963 -0.5221  0.5205 -0.9724
17413SOL     OW54232   8.262   7.945   8.679 -0.0983  0.0584  0.1971
17413SOL    HW154233   8.278   8.036   8.704  0.1287  0.2723 -0.6946
17413SOL    HW254234   8.196   7.951   8.610  0.6476 -0.3821 -0.5661
17414SOL     OW54235   6.735   8.384   7.160  0.1853 -0.0865  0.3575
17414SOL    HW154236   6.708   8.295   7.181  0.1098 -0.1906 -0.1646
17414SOL    HW254237   6.772   8.378   7.071 -2.4427  0.8931 -0.9105
17415SOL     OW54238   2.449   5.586   1.621  0.3959 -0.1338 -0.3050
17415SOL    HW154239   2.489   5.619   1.702  1.0521 -0.1578 -0.6193
17415SOL    HW254240   2.510   5.610   1.552  0.9882 -2.1139 -0.5403
17416SOL     OW54241   6.571   2.081   3.286  0.0598  0.1980  0.0710
17416SOL    HW154242   6.487   2.076   3.330 -0.7365  0.6878 -1.3004
17416SOL    HW254243   6.558   2.147   3.217  1.6440  0.4856 -0.0045
17417SOL     OW54244   5.011   0.556   4.683 -0.0974 -0.3809  0.0293
17417SOL    HW154245   4.999   0.534   4.590 -1.3366 -0.3767  0.1696
17417SOL    HW254246   4.966   0.485   4.730 -0.3143  0.1252  0.5961
17418SOL     OW54247   1.680   7.070   2.929 -0.5027  0.2607  0.1172
17418SOL    HW154248   1.637   7.131   2.990 -1.4316 -0.2493 -0.0135
17418SOL    HW254249   1.765   7.051   2.970 -0.0475  1.8986 -0.0090
17419SOL     OW54250   0.369   1.181   0.485 -0.5260  0.7276  0.1609
17419SOL    HW154251   0.286   1.161   0.441 -0.1601  0.6471 -0.5132
17419SOL    HW254252   0.403   1.256   0.437  1.3082 -1.1313 -1.6962
17420SOL     OW54253   6.179   5.635   7.215 -0.1127  0.2089  0.0001
17420SOL    HW154254   6.227   5.661   7.293 -1.3272 -1.1932  1.2656
17420SOL    HW254255   6.223   5.555   7.185  1.0971  1.3770 -1.5140
17421SOL     OW54256   4.096   4.507   4.420 -0.4258  0.2156 -0.4266
17421SOL    HW154257   4.080   4.421   4.458 -0.6808 -0.5409 -2.1844
17421SOL    HW254258   4.050   4.568   4.479 -1.0804 -0.9372  0.2854
17422SOL     OW54259   7.524   8.163   4.087 -0.2600  0.6009  0.1074
17422SOL    HW154260   7.517   8.251   4.123  0.2635  1.1690 -1.1323
17422SOL    HW254261   7.475   8.166   4.005  0.3874 -0.0505 -0.3136
17423SOL     OW54262   1.943   1.728   3.851 -0.4312 -0.0604 -0.0283
17423SOL    HW154263   1.904   1.777   3.924  0.2120  0.0893  0.2238
17423SOL    HW254264   1.913   1.638   3.864  0.8656 -0.3374  1.2838
17424SOL     OW54265   8.266   3.100   0.891  0.2534 -0.1134 -0.1218
17424SOL    HW154266   8.310   3.169   0.941 -1.5857  0.0418  1.3880
17424SOL    HW254267   8.305   3.019   0.921  0.1968  0.0812  0.4885
17425SOL     OW54268   4.966   6.878   3.607 -0.1708  0.3934 -0.3603
17425SOL    HW154269   5.043   6.823   3.621  0.1201  0.4673 -1.5322
17425SOL    HW254270   5.000   6.967   3.604 -0.2078  0.3925 -1.3448
17426SOL     OW54271   1.639   0.840   6.374  0.5223 -0.5245 -0.2010
17426SOL    HW154272   1.682   0.763   6.412 -0.2217 -0.2498  1.2732
17426SOL    HW254273   1.577   0.868   6.441  0.1540  0.8425 -1.0790
17427SOL     OW54274   7.808   8.466   0.353 -0.6334  0.6794 -0.0462
17427SOL    HW154275   7.773   8.420   0.276 -0.8274 -0.1488  0.5296
17427SOL    HW254276   7.832   8.552   0.319  0.5994 -0.1324 -1.3527
17428SOL     OW54277   4.049   2.044   4.298 -0.0909  0.2355 -0.1123
17428SOL    HW154278   4.088   2.122   4.260  0.7308  1.3144  2.6648
17428SOL    HW254279   4.060   1.976   4.231  2.0588  1.7178 -1.3924
17429SOL     OW54280   3.300   1.188   2.389 -0.3503  0.0352  0.2506
17429SOL    HW154281   3.352   1.122   2.342 -0.4694  0.4963 -0.5529
17429SOL    HW254282   3.210   1.171   2.361 -0.3789  0.5503  0.0206
17430SOL     OW54283   1.698   5.503   7.164  0.3319  0.1969 -0.6206
17430SOL    HW154284   1.718   5.452   7.243  1.6494  0.2966 -0.8594
17430SOL    HW254285   1.784   5.526   7.129 -0.2330  0.0871 -2.1400
17431SOL     OW54286   7.155   1.575   2.989  0.2146  0.3949 -0.4514
17431SOL    HW154287   7.159   1.601   2.897 -1.9137 -0.4796 -0.8646
17431SOL    HW254288   7.105   1.646   3.031  0.0997  0.1907 -0.2413
17432SOL     OW54289   1.288   8.772   3.363 -0.2474  0.8230 -0.1568
17432SOL    HW154290   1.239   8.711   3.418  0.3496 -1.2123 -1.7588
17432SOL    HW254291   1.235   8.782   3.284  0.6178  0.7457 -0.7675
17433SOL     OW54292   4.405   5.600   4.604  0.2344  0.2677  0.9115
17433SOL    HW154293   4.374   5.645   4.683 -0.0936  0.5804  0.6082
17433SOL    HW254294   4.484   5.555   4.632  0.5134  0.9516  1.2498
17434SOL     OW54295   5.225   8.333   7.016  0.1895  1.0752 -0.2265
17434SOL    HW154296   5.275   8.388   6.955 -0.9493  2.6361  0.1727
17434SOL    HW254297   5.140   8.377   7.023 -0.6990 -0.6333  0.3171
17435SOL     OW54298   8.145   3.059   2.563  0.2140 -0.2224  0.3877
17435SOL    HW154299   8.137   3.124   2.632  0.1467  1.3433 -1.0128
17435SOL    HW254300   8.056   3.049   2.528  0.6259  1.0534 -1.1783
17436SOL     OW54301   5.431   3.411   0.541  0.0601 -0.3468 -0.3938
17436SOL    HW154302   5.508   3.432   0.595  1.2591 -0.9673 -1.7769
17436SOL    HW254303   5.433   3.475   0.470 -0.4056 -0.6701 -0.7034
17437SOL     OW54304   2.072   5.617   5.303  0.2571  0.0727  0.0032
17437SOL    HW154305   2.030   5.588   5.384 -0.3398 -0.3471 -0.4604
17437SOL    HW254306   2.094   5.709   5.320 -0.0517  0.0469  0.5626
17438SOL     OW54307   4.028   8.441   5.986  0.3943  0.5564 -0.3462
17438SOL    HW154308   4.043   8.513   6.047  0.3499 -1.3434  2.0538
17438SOL    HW254309   3.932   8.432   5.983  0.4235  0.0724  0.0498
17439SOL     OW54310   7.703   6.400   7.284  0.2637 -0.4862 -0.3767
17439SOL    HW154311   7.658   6.469   7.236 -2.7822 -1.1616  1.2329
17439SOL    HW254312   7.767   6.446   7.339  0.7386  0.6534 -1.8222
17440SOL     OW54313   6.115   8.655   5.219 -0.4804  0.1380  0.2619
17440SOL    HW154314   6.117   8.560   5.209 -0.6986  0.0188  1.1847
17440SOL    HW254315   6.068   8.687   5.142 -1.1292 -0.5744  0.3503
17441SOL     OW54316   6.136   0.387   3.776 -0.0348  0.2848  0.5280
17441SOL    HW154317   6.056   0.350   3.738 -1.0291  0.2733  2.5320
17441SOL    HW254318   6.157   0.329   3.849  1.9917  0.1459 -0.0984
17442SOL     OW54319   4.665   5.274   2.510  0.1846 -1.2087  0.1077
17442SOL    HW154320   4.668   5.369   2.523  0.0843 -1.3444  1.1466
17442SOL    HW254321   4.591   5.244   2.563  0.0693 -1.8472 -0.3960
17443SOL     OW54322   7.781   3.772   2.626 -0.7908  0.2300  0.6831
17443SOL    HW154323   7.814   3.837   2.688  3.9100 -1.3005  0.1887
17443SOL    HW254324   7.708   3.730   2.671 -0.5921  2.3369  3.1700
17444SOL     OW54325   5.439   7.395   3.877 -0.1612  0.1071 -0.0862
17444SOL    HW154326   5.478   7.308   3.887 -0.4385 -0.1558 -1.1184
17444SOL    HW254327   5.513   7.455   3.881  0.0364 -0.1752  0.6135
17445SOL     OW54328   5.659   3.877   0.983 -0.2435  0.1777 -0.0263
17445SOL    HW154329   5.650   3.798   1.035 -0.4349  0.2210  0.0089
17445SOL    HW254330   5.750   3.877   0.954 -0.2315 -0.0314  0.0105
17446SOL     OW54331   5.662   8.028   4.291  0.6059  0.1934 -0.3011
17446SOL    HW154332   5.630   7.941   4.316  1.8742 -0.1508  0.1774
17446SOL    HW254333   5.718   8.055   4.363  0.2853  1.3955 -0.4816
17447SOL     OW54334   6.722   8.162   5.779 -0.1593 -0.0672 -0.2776
17447SOL    HW154335   6.658   8.193   5.844  0.6702 -0.2446  0.6473
17447SOL    HW254336   6.670   8.141   5.702 -1.6048 -2.5923  1.2364
17448SOL     OW54337   3.677   5.349   4.427  0.7152 -0.0115 -0.0985
17448SOL    HW154338   3.732   5.380   4.499  0.0444  3.4960 -0.9037
17448SOL    HW254339   3.712   5.263   4.406  1.3977 -0.9298  3.8749
17449SOL     OW54340   4.776   1.598   3.222 -0.3214  0.2465 -0.3709
17449SOL    HW154341   4.727   1.634   3.148  0.3677  1.1499 -0.3976
17449SOL    HW254342   4.781   1.670   3.285 -2.1347 -0.8973  1.2341
17450SOL     OW54343   6.537   1.098   2.159 -0.1336 -0.1872 -0.4044
17450SOL    HW154344   6.454   1.100   2.207 -0.1484  2.0786 -0.4234
17450SOL    HW254345   6.566   1.007   2.165 -1.2285 -0.4533  2.0097
17451SOL     OW54346   4.464   1.620   4.759 -0.3454 -0.6192 -0.0113
17451SOL    HW154347   4.390   1.635   4.701 -0.3683 -0.3133  0.0969
17451SOL    HW254348   4.540   1.620   4.701 -0.3011  0.3486  0.0396
17452SOL     OW54349   2.996   8.594   7.149 -0.0852 -0.4082 -0.0993
17452SOL    HW154350   3.034   8.619   7.233  1.3338 -0.8832 -0.5628
17452SOL    HW254351   3.003   8.498   7.148 -0.3106 -0.4215 -0.6462
17453SOL     OW54352   5.462   2.687   4.642 -0.2759  0.5910  0.1297
17453SOL    HW154353   5.451   2.672   4.548  1.5115  0.4492 -0.1069
17453SOL    HW254354   5.375   2.710   4.674 -1.2013 -0.7501 -1.3023
17454SOL     OW54355   7.839   1.397   8.143 -0.4534 -0.2942  0.0154
17454SOL    HW154356   7.875   1.333   8.082  1.1557  1.8534 -1.4108
17454SOL    HW254357   7.903   1.400   8.214  0.1004  0.5618 -0.5074
17455SOL     OW54358   8.192   7.924   3.072 -0.0935  0.6162  0.4851
17455SOL    HW154359   8.134   7.996   3.048  0.1665  0.2269 -1.5590
17455SOL    HW254360   8.144   7.845   3.045 -0.1434  0.0290  2.1774
17456SOL     OW54361   1.668   2.713   3.334  0.1381  0.7006  0.0509
17456SOL    HW154362   1.586   2.664   3.326  1.0771 -0.9477 -0.1001
17456SOL    HW254363   1.725   2.675   3.266  1.2952  1.2212  0.6985
17457SOL     OW54364   1.948   4.574   4.311 -0.1642 -0.3768 -0.6377
17457SOL    HW154365   1.868   4.522   4.302  1.2951 -2.8557 -0.3497
17457SOL    HW254366   2.013   4.528   4.258  1.6933  0.1095  1.0672
17458SOL     OW54367   2.488   2.121   0.588 -0.1510  0.2745  0.6199
17458SOL    HW154368   2.524   2.202   0.625  2.3495 -0.9501  1.0595
17458SOL    HW254369   2.400   2.116   0.624  0.2901  1.8855  2.0581
17459SOL     OW54370   2.704   3.402   4.113 -0.2525  0.4398 -0.1213
17459SOL    HW154371   2.691   3.321   4.063  0.2761  0.9143 -1.0422
17459SOL    HW254372   2.616   3.428   4.140 -0.4252 -0.4842  0.2770
17460SOL     OW54373   2.167   3.938   2.454  0.4701  0.6481 -0.1557
17460SOL    HW154374   2.119   3.996   2.513 -0.3347  0.3250 -0.4802
17460SOL    HW254375   2.138   3.964   2.366 -3.5406 -3.1717 -0.2917
17461SOL     OW54376   3.009   5.659   1.500 -0.1451  0.0584  0.0789
17461SOL    HW154377   2.984   5.706   1.421  3.8929  1.7413 -0.4217
17461SOL    HW254378   2.976   5.713   1.572 -2.6340 -0.7739 -0.3400
17462SOL     OW54379   7.740   7.802   5.084  0.5917  0.0960  0.5110
17462SOL    HW154380   7.819   7.748   5.084 -0.2545 -1.1657 -0.1528
17462SOL    HW254381   7.699   7.784   5.169  1.3984  1.3846  1.2153
17463SOL     OW54382   2.082   6.366   5.292  0.1934 -0.1034  0.4099
17463SOL    HW154383   2.066   6.444   5.344  1.2054  0.9780 -0.8324
17463SOL    HW254384   2.000   6.351   5.244 -0.0760  0.0507  0.8216
17464SOL     OW54385   8.583   6.286   1.560  0.5044  0.9922  0.0968
17464SOL    HW154386   8.646   6.245   1.500  1.2128 -0.3091  1.6381
17464SOL    HW254387   8.637   6.322   1.630 -0.3296  2.0591  0.2185
17465SOL     OW54388   4.576   0.601   7.027  0.0521  0.1831 -0.0934
17465SOL    HW154389   4.505   0.664   7.013 -0.6123 -0.1870  1.4425
17465SOL    HW254390   4.557   0.530   6.965 -0.7089  0.2644  0.0375
17466SOL     OW54391   1.333   2.602   8.520  0.4299 -0.7391 -0.6039
17466SOL    HW154392   1.363   2.648   8.441  1.9066  1.7825  1.2964
17466SOL    HW254393   1.391   2.526   8.527 -0.1754 -1.4087 -2.2613
17467SOL     OW54394   6.426   3.822   4.635  0.1159 -0.1552 -0.3964
17467SOL    HW154395   6.517   3.824   4.606  0.0718  1.9276 -0.5505
17467SOL    HW254396   6.380   3.876   4.571 -1.2522 -1.1551 -0.3002
17468SOL     OW54397   0.921   0.828   4.365 -0.1461 -0.1705  0.5592
17468SOL    HW154398   0.835   0.815   4.404 -0.4115  2.2490  0.9362
17468SOL    HW254399   0.933   0.752   4.308 -2.6053 -0.4734  0.3297
17469SOL     OW54400   4.827   8.435   5.740 -0.0848  0.2745  0.0871
17469SOL    HW154401   4.765   8.475   5.679 -2.0419 -1.4260  0.8137
17469SOL    HW254402   4.900   8.496   5.744 -1.3523  2.0101 -1.4399
17470SOL     OW54403   5.402   8.879   0.070 -0.6167 -0.2052  0.0030
17470SOL    HW154404   5.387   8.925  -0.013 -0.8024  0.3498  0.3358
17470SOL    HW254405   5.352   8.929   0.134 -2.7797 -2.2379  0.0163
17471SOL     OW54406   4.737   1.528   3.670 -0.1163 -0.1166 -0.0072
17471SOL    HW154407   4.789   1.602   3.700 -0.6416 -0.3232  1.5155
17471SOL    HW254408   4.725   1.474   3.748 -3.1644  0.2723 -0.0999
17472SOL     OW54409   8.387   1.427   6.382 -0.8907 -0.1277  0.3685
17472SOL    HW154410   8.406   1.416   6.475 -2.3552 -0.5726  0.6382
17472SOL    HW254411   8.325   1.357   6.362 -1.5735  0.7449 -0.6329
17473SOL     OW54412   6.451   7.072   1.882 -0.1662 -0.0086  0.5467
17473SOL    HW154413   6.379   7.010   1.886  1.0684 -1.6425 -1.0439
17473SOL    HW254414   6.416   7.146   1.831 -0.9559 -0.4304  0.4627
17474SOL     OW54415   4.474   7.310   8.037 -0.0162  0.1350  0.6440
17474SOL    HW154416   4.426   7.383   8.078 -1.7655  0.5449 -1.8974
17474SOL    HW254417   4.536   7.353   7.978  0.0279 -0.4360  0.2754
17475SOL     OW54418   4.597   0.550   0.978  0.1499 -0.3468 -0.1014
17475SOL    HW154419   4.547   0.541   1.059  0.6303  0.7437  0.3344
17475SOL    HW254420   4.553   0.619   0.929  0.7781  0.1032 -0.0478
17476SOL     OW54421   7.568   4.020   4.664  0.1741  0.1086 -0.5216
17476SOL    HW154422   7.640   4.061   4.713  0.5942  0.1285 -1.1417
17476SOL    HW254423   7.502   4.001   4.730  0.9251 -0.2899  0.1425
17477SOL     OW54424   7.698   3.161   8.108  0.6244  0.3823 -0.6621
17477SOL    HW154425   7.793   3.170   8.112  0.4129  3.2631 -0.3816
17477SOL    HW254426   7.681   3.127   8.020  1.9163 -1.4584 -0.2631
17478SOL     OW54427   5.496   2.430   7.334 -0.3835 -0.2583 -0.3051
17478SOL    HW154428   5.469   2.354   7.387  1.6180 -0.2406  0.8453
17478SOL    HW254429   5.526   2.393   7.252  0.8782 -0.7899  0.3692
17479SOL     OW54430   1.377   3.103   7.539  0.1502 -0.1709 -0.0038
17479SOL    HW154431   1.376   3.108   7.444  0.3874 -1.0419 -0.0605
17479SOL    HW254432   1.293   3.063   7.562 -0.5266  1.3266  0.2540
17480SOL     OW54433   7.250   6.574   4.069  0.7128  0.3759  0.3154
17480SOL    HW154434   7.321   6.538   4.016  0.3524 -0.9555  0.6968
17480SOL    HW254435   7.210   6.641   4.013  1.0247 -0.2421 -0.6674
17481SOL     OW54436   1.003   8.097   2.021  0.4322 -0.0937  0.5686
17481SOL    HW154437   1.039   8.161   1.959  0.3768  0.3463  0.9799
17481SOL    HW254438   0.955   8.035   1.967 -0.2518  0.7127  0.2408
17482SOL     OW54439   0.932   3.566   5.034  0.3677 -0.1222 -0.3709
17482SOL    HW154440   0.874   3.581   5.109  1.7186 -0.9520  0.8869
17482SOL    HW254441   1.011   3.618   5.054  0.0690  1.0885 -2.1051
17483SOL     OW54442   7.521   1.629   5.508  0.2621 -0.4126  0.1369
17483SOL    HW154443   7.485   1.623   5.596  3.0886 -1.2209  1.3476
17483SOL    HW254444   7.500   1.718   5.479 -0.9151 -0.2174  1.5106
17484SOL     OW54445   0.287   6.333   1.873  0.0839 -0.3282 -0.2622
17484SOL    HW154446   0.200   6.372   1.867  0.3214  0.2743  0.0948
17484SOL    HW254447   0.346   6.399   1.837  0.6752  0.3805  1.8130
17485SOL     OW54448   4.630   5.502   8.100 -0.0092 -0.4908  0.3479
17485SOL    HW154449   4.679   5.443   8.042 -0.1942 -1.8273  1.4929
17485SOL    HW254450   4.690   5.518   8.173 -1.0027 -1.6663  1.4735
17486SOL     OW54451   7.132   1.282   0.402  0.2244  0.6290 -0.4422
17486SOL    HW154452   7.208   1.310   0.352  0.5337 -2.5069 -2.0259
17486SOL    HW254453   7.163   1.278   0.493  1.7252  0.2156 -0.9362
17487SOL     OW54454   3.342   3.987   1.223 -0.0081 -0.3482  0.5666
17487SOL    HW154455   3.386   4.051   1.168 -1.5814  0.0090 -0.3533
17487SOL    HW254456   3.310   3.920   1.163 -0.5292 -0.6945  1.2128
17488SOL     OW54457   0.952   6.319   2.673  0.3872 -0.5193  0.2922
17488SOL    HW154458   0.870   6.278   2.700 -0.4947  0.3552 -0.9483
17488SOL    HW254459   1.017   6.249   2.680 -0.6958 -1.5894  0.0927
17489SOL     OW54460   6.332   6.708   3.153 -0.1449 -0.4685  0.2124
17489SOL    HW154461   6.337   6.653   3.230 -1.2296 -1.2687 -0.2697
17489SOL    HW254462   6.333   6.798   3.187 -1.0469 -0.8128  1.1916
17490SOL     OW54463   0.370   7.274   4.308 -0.1070  0.3825 -0.3754
17490SOL    HW154464   0.453   7.314   4.281 -0.3836  0.6568 -0.8321
17490SOL    HW254465   0.304   7.316   4.252 -0.5091 -0.0760 -0.2488
17491SOL     OW54466   5.862   8.239   1.415  0.7533  0.1591 -0.0893
17491SOL    HW154467   5.957   8.226   1.415  0.5659 -1.6520  1.2098
17491SOL    HW254468   5.848   8.312   1.476  1.2992  0.3910 -0.2364
17492SOL     OW54469   7.402   0.902   1.649  0.1052 -0.2480 -0.4869
17492SOL    HW154470   7.335   0.890   1.582 -0.1629 -0.2343 -0.2281
17492SOL    HW254471   7.467   0.961   1.610  1.0885 -1.9594 -1.5279
17493SOL     OW54472   8.521   7.700   2.038  0.1040 -0.2434  0.1425
17493SOL    HW154473   8.535   7.795   2.039 -1.2840  0.0286 -1.3580
17493SOL    HW254474   8.570   7.670   1.961  0.3765 -0.7135  0.4977
17494SOL     OW54475   2.931   3.918   1.866  0.0299 -0.5139 -0.1373
17494SOL    HW154476   2.900   3.988   1.809 -0.9944  1.1258  2.3089
17494SOL    HW254477   2.852   3.867   1.886  0.4246 -1.2265 -0.3515
17495SOL     OW54478   4.558   3.257   0.243 -0.5159 -0.3168 -0.4414
17495SOL    HW154479   4.516   3.314   0.307  1.4137 -0.0661  0.6679
17495SOL    HW254480   4.546   3.303   0.159 -0.7712  0.6809  0.1229
17496SOL     OW54481   2.404   8.050   3.618  0.0222  0.1961  0.1546
17496SOL    HW154482   2.469   8.089   3.560  0.5543 -0.6359  0.1809
17496SOL    HW254483   2.334   8.116   3.623  0.9376  1.1892  0.2824
17497SOL     OW54484   3.815   2.978   8.526 -0.0272 -0.4396  0.0535
17497SOL    HW154485   3.774   2.920   8.590  1.7993 -2.1542 -0.2429
17497SOL    HW254486   3.807   3.065   8.565 -2.8213 -0.7977  0.5281
17498SOL     OW54487   6.196   5.306   3.173  0.5325 -0.1360  0.0468
17498SOL    HW154488   6.235   5.328   3.089  0.3090 -0.3362 -0.1078
17498SOL    HW254489   6.120   5.365   3.180  0.8724  0.2751  0.3611
17499SOL     OW54490   5.195   7.091   5.669 -0.0331  0.4264 -0.1054
17499SOL    HW154491   5.280   7.123   5.641 -0.4362  1.3515 -0.3021
17499SOL    HW254492   5.171   7.025   5.604  0.9714 -0.5690  0.5120
17500SOL     OW54493   2.602   2.663   5.210  0.0537 -0.3216  0.3293
17500SOL    HW154494   2.523   2.713   5.190  0.1468  0.1397  1.0907
17500SOL    HW254495   2.570   2.579   5.244 -0.1096 -0.1375  0.6298
17501SOL     OW54496   3.801   8.319   7.369  0.4456 -0.6151 -0.2786
17501SOL    HW154497   3.860   8.302   7.295 -0.1303 -0.8517 -0.6941
17501SOL    HW254498   3.856   8.314   7.446  1.1961  0.2730 -0.7359
17502SOL     OW54499   4.494   8.444   8.748  0.4247  0.2283  0.3162
17502SOL    HW154500   4.586   8.451   8.772  1.2537 -0.4806 -2.2665
17502SOL    HW254501   4.473   8.351   8.760 -0.1858  0.5104  1.5482
17503SOL     OW54502   0.862   6.643   6.884  0.7387  0.4172 -0.2655
17503SOL    HW154503   0.942   6.600   6.914  0.5922 -0.4407 -1.0426
17503SOL    HW254504   0.798   6.573   6.877  0.8327  0.4702 -2.7657
17504SOL     OW54505   4.435   7.997   5.290  0.6359 -0.3418 -0.3956
17504SOL    HW154506   4.520   8.020   5.251  0.9210  0.3809  0.6182
17504SOL    HW254507   4.445   7.905   5.316  1.2210 -0.1766 -0.0078
17505SOL     OW54508   2.763   0.703   7.801 -0.2303  0.4715  0.0080
17505SOL    HW154509   2.741   0.619   7.762  1.1924  0.8194 -1.6765
17505SOL    HW254510   2.825   0.681   7.871  0.3189  0.1286 -0.5793
17506SOL     OW54511   5.652   7.725   8.831 -0.1349  0.0217 -0.4429
17506SOL    HW154512   5.625   7.659   8.895 -1.5729 -2.5320 -3.4064
17506SOL    HW254513   5.733   7.692   8.794  0.2230  1.0135 -0.5843
17507SOL     OW54514   6.146   5.387   3.696  0.7974  0.1617  0.1132
17507SOL    HW154515   6.059   5.365   3.727  0.1789  0.1432 -1.5101
17507SOL    HW254516   6.132   5.418   3.606  2.1353  2.8435  0.7226
17508SOL     OW54517   3.571   8.137   7.254  0.1001  0.0856 -0.4705
17508SOL    HW154518   3.625   8.194   7.310  1.3791 -1.3055 -0.2106
17508SOL    HW254519   3.483   8.146   7.289  0.2665  1.8171 -0.3812
17509SOL     OW54520   5.361   2.093   8.797  0.0731 -0.0319 -0.1475
17509SOL    HW154521   5.350   2.082   8.702 -2.1563  1.5348 -0.1663
17509SOL    HW254522   5.279   2.135   8.825  0.8009 -0.1980  2.4377
17510SOL     OW54523   1.844   2.615   3.148 -0.2460 -0.1929  0.8040
17510SOL    HW154524   1.846   2.550   3.077 -0.5567 -0.4528  1.0304
17510SOL    HW254525   1.842   2.563   3.228 -1.5426  0.0617  0.9684
17511SOL     OW54526   6.975   3.199   1.898  0.0328 -0.0305 -0.0536
17511SOL    HW154527   7.033   3.266   1.934  1.3832 -1.3215  0.3090
17511SOL    HW254528   6.957   3.227   1.809  0.1345  1.0651  0.2611
17512SOL     OW54529   7.659   5.616   2.390  0.1376 -0.0330 -0.0913
17512SOL    HW154530   7.624   5.540   2.345  0.4600 -0.4137  0.2906
17512SOL    HW254531   7.659   5.591   2.483  0.3204  0.3984  0.0284
17513SOL     OW54532   5.787   5.853   2.165 -0.5011  0.4714 -0.4580
17513SOL    HW154533   5.757   5.837   2.076  1.6166  1.6678 -1.4576
17513SOL    HW254534   5.780   5.767   2.208 -0.5579 -0.3721 -2.0710
17514SOL     OW54535   3.777   3.321   6.143  0.3725 -0.5345  0.2022
17514SOL    HW154536   3.867   3.351   6.135  0.1477 -0.2329 -1.6971
17514SOL    HW254537   3.778   3.258   6.214  1.8554  0.2756  0.9303
17515SOL     OW54538   3.865   6.719   1.434  0.6548  0.1904  0.1938
17515SOL    HW154539   3.865   6.743   1.526 -1.3309  1.7720 -0.1575
17515SOL    HW254540   3.867   6.803   1.387  1.1461 -0.5649 -1.2129
17516SOL     OW54541   7.459   1.319   7.629 -0.2792 -0.1236  0.5992
17516SOL    HW154542   7.418   1.285   7.709 -0.5911  0.6195  0.7671
17516SOL    HW254543   7.535   1.368   7.661 -0.0717 -0.3177  0.3983
17517SOL     OW54544   7.652   3.109   7.265 -0.6631 -0.1337  0.1836
17517SOL    HW154545   7.692   3.188   7.230  0.1842  0.3880  2.1994
17517SOL    HW254546   7.726   3.051   7.284 -1.0844 -0.4110  1.0229
17518SOL     OW54547   6.924   1.562   8.177 -0.6512 -0.1763 -0.2484
17518SOL    HW154548   6.928   1.611   8.095 -1.3555 -1.1701 -0.8942
17518SOL    HW254549   7.013   1.567   8.212 -0.2579 -0.0121 -1.2324
17519SOL     OW54550   3.695   2.781   8.679  0.2646  0.1702 -0.2476
17519SOL    HW154551   3.632   2.806   8.748 -0.7334  2.6928 -1.9358
17519SOL    HW254552   3.762   2.731   8.726 -1.6420 -0.4412  2.0954
17520SOL     OW54553   0.010   3.258   4.698  0.2761  0.0700  0.3600
17520SOL    HW154554   0.035   3.181   4.647  0.9658  0.9915 -0.7482
17520SOL    HW254555  -0.069   3.232   4.745  1.8770 -2.1477  2.0231
17521SOL     OW54556   2.182   8.293   6.034  0.1823  0.3366  0.2158
17521SOL    HW154557   2.261   8.322   6.078 -0.2005  1.1216  0.4055
17521SOL    HW254558   2.159   8.210   6.077 -0.5161  1.3657  1.9291
17522SOL     OW54559   1.410   5.793   7.865 -0.3705  0.1045  0.6346
17522SOL    HW154560   1.471   5.852   7.819 -0.3795 -0.1817  0.2539
17522SOL    HW254561   1.359   5.852   7.921  1.0168  0.2272  1.8364
17523SOL     OW54562   2.420   4.376   8.211 -0.2102 -0.3801  0.5131
17523SOL    HW154563   2.331   4.363   8.244 -0.0923  0.5461  1.2245
17523SOL    HW254564   2.409   4.405   8.121 -0.6397 -0.1989  0.6244
17524SOL     OW54565   6.893   8.317   8.123 -0.0896 -0.1362 -0.0659
17524SOL    HW154566   6.846   8.325   8.206 -0.5208 -0.0498 -0.3176
17524SOL    HW254567   6.925   8.405   8.104 -0.9514  0.0836 -0.5504
17525SOL     OW54568   2.161   0.449   7.973 -0.2522 -0.3493  0.3368
17525SOL    HW154569   2.233   0.454   7.910 -0.3571 -0.2478  0.2238
17525SOL    HW254570   2.181   0.517   8.038 -0.7187  0.3122 -0.1930
17526SOL     OW54571   6.482   3.490   3.081  0.3823  0.3395  0.5765
17526SOL    HW154572   6.464   3.511   2.990  0.5778  0.3892  0.5478
17526SOL    HW254573   6.573   3.460   3.081  0.2452 -0.0917  0.6834
17527SOL     OW54574   1.811   7.768   6.007  0.1570  0.0942  0.5145
17527SOL    HW154575   1.774   7.721   5.932  1.3510 -0.7928  0.4655
17527SOL    HW254576   1.790   7.860   5.990  0.5543 -0.0723 -1.0033
17528SOL     OW54577   6.105   1.945   8.491  0.4888 -0.3020  0.0893
17528SOL    HW154578   6.199   1.946   8.510  0.8182 -1.3878 -1.2986
17528SOL    HW254579   6.099   1.968   8.399 -0.8373  2.1174  0.6804
17529SOL     OW54580   7.050   2.806   8.445 -0.3676  0.1678  0.0142
17529SOL    HW154581   6.970   2.857   8.453 -0.3877  0.2306 -0.5654
17529SOL    HW254582   7.088   2.833   8.362 -1.0658 -1.7207 -0.9884
17530SOL     OW54583   4.841   6.817   8.645  0.3418 -0.7288  0.3351
17530SOL    HW154584   4.881   6.791   8.562  0.2548 -2.5984  0.8424
17530SOL    HW254585   4.914   6.847   8.699  0.4800 -0.1334 -0.1696
17531SOL     OW54586   0.089   1.080   7.326  0.5471 -0.3477 -0.0199
17531SOL    HW154587  -0.001   1.107   7.342  1.3171  1.6638  1.2941
17531SOL    HW254588   0.098   1.082   7.230  0.3227  3.7323 -0.1266
17532SOL     OW54589   2.392   5.227   4.406  0.1432 -0.3552 -0.0648
17532SOL    HW154590   2.356   5.232   4.494 -1.0703 -2.2240 -0.3914
17532SOL    HW254591   2.486   5.214   4.418 -0.0598 -0.9452  0.9631
17533SOL     OW54592   6.176   7.290   1.344 -0.7577  0.3809  0.1568
17533SOL    HW154593   6.101   7.348   1.335 -0.0386  1.3584  0.3870
17533SOL    HW254594   6.217   7.290   1.258 -1.2722 -0.5152 -0.0973
17534SOL     OW54595   6.068   8.538   7.773 -0.3506  0.1128  0.5741
17534SOL    HW154596   6.057   8.574   7.861 -0.5202  0.8237  0.2743
17534SOL    HW254597   6.072   8.615   7.717  0.8130 -0.2842  0.0689
17535SOL     OW54598   0.668   7.623   5.610 -0.2182 -0.5790  0.9895
17535SOL    HW154599   0.577   7.617   5.580  0.4794 -1.2678 -1.1615
17535SOL    HW254600   0.677   7.713   5.642 -1.5278 -0.3625  0.8017
17536SOL     OW54601   6.873   6.914   3.908  0.0586  0.4644  0.4069
17536SOL    HW154602   6.821   6.871   3.976  0.3606 -0.3636  0.1203
17536SOL    HW254603   6.844   6.873   3.827 -2.3889  3.3643 -0.4023
17537SOL     OW54604   4.176   7.403   0.218 -0.2493 -0.0363 -0.0227
17537SOL    HW154605   4.235   7.411   0.294  1.4472 -0.3692 -1.2390
17537SOL    HW254606   4.189   7.485   0.170 -2.5296  0.8838  0.8018
17538SOL     OW54607   6.825   2.200   0.190 -0.2029  0.5007 -0.2318
17538SOL    HW154608   6.758   2.201   0.121 -0.9871 -4.7118  0.0627
17538SOL    HW254609   6.777   2.176   0.269  1.6030 -0.2665  0.6818
17539SOL     OW54610   3.493   5.438   4.654 -0.6111 -0.0132 -0.3689
17539SOL    HW154611   3.562   5.388   4.610 -1.2062 -0.6279 -0.6207
17539SOL    HW254612   3.425   5.373   4.671 -0.4235  0.2232  1.4108
17540SOL     OW54613   2.449   5.932   1.666  0.2452 -0.3173  1.0562
17540SOL    HW154614   2.489   5.884   1.738 -0.2930 -0.7401  1.0843
17540SOL    HW254615   2.521   5.953   1.607  0.4779 -1.2435  1.0039
17541SOL     OW54616   3.806   7.875   4.312 -0.0565  0.3957 -0.6502
17541SOL    HW154617   3.853   7.958   4.316 -0.8504  0.7969  0.9650
17541SOL    HW254618   3.714   7.899   4.316 -0.2809 -0.5723  0.6232
17542SOL     OW54619   8.438   6.630   7.022 -0.5354 -0.0487  0.9337
17542SOL    HW154620   8.521   6.652   7.064 -0.0271  0.2851 -0.2114
17542SOL    HW254621   8.429   6.535   7.035  0.4430 -0.2305  0.3485
17543SOL     OW54622   1.918   4.034   2.010  0.2141  0.0597  0.0680
17543SOL    HW154623   1.955   3.951   1.981 -0.4777 -0.7519  1.4027
17543SOL    HW254624   1.833   4.040   1.966  0.6343  0.4887 -0.6971
17544SOL     OW54625   5.325   3.534   4.832  0.3242  0.1977 -0.0971
17544SOL    HW154626   5.356   3.478   4.761  0.4420 -0.7534  0.6860
17544SOL    HW254627   5.328   3.623   4.795 -2.1792 -0.4584 -2.2156
17545SOL     OW54628   6.551   2.644   4.516  0.2238 -0.3137  0.1391
17545SOL    HW154629   6.459   2.664   4.499  0.1309 -1.7677 -1.3199
17545SOL    HW254630   6.600   2.706   4.461  0.0930 -0.4167 -0.0914
17546SOL     OW54631   0.580   5.143   4.458 -0.5115  0.4616  0.8291
17546SOL    HW154632   0.584   5.112   4.367 -0.8375  1.5534  0.4364
17546SOL    HW254633   0.487   5.149   4.478 -0.6442  4.1031 -0.1675
17547SOL     OW54634   5.000   5.919   8.079  0.4598  0.3249  0.3775
17547SOL    HW154635   5.028   5.919   7.987 -0.6800 -1.9335 -0.0461
17547SOL    HW254636   4.966   6.007   8.094  0.2792  0.6131 -1.5012
17548SOL     OW54637   8.453   2.531   5.036  0.3213 -0.2831 -0.3926
17548SOL    HW154638   8.397   2.454   5.035  2.8958 -2.4699  2.5822
17548SOL    HW254639   8.496   2.531   4.950 -1.0957 -0.9999 -1.1356
17549SOL     OW54640   5.330   6.907   3.821  0.5978  0.0635 -0.3908
17549SOL    HW154641   5.278   6.927   3.900  1.3904 -0.7855  0.3676
17549SOL    HW254642   5.411   6.956   3.833  0.6355  0.0983 -0.7883
17550SOL     OW54643   3.196   7.239   7.764 -0.0768 -0.3605  0.5877
17550SOL    HW154644   3.187   7.301   7.692 -0.4312 -0.7699  0.2679
17550SOL    HW254645   3.224   7.158   7.722 -1.1595 -0.8567  0.7739
17551SOL     OW54646   5.959   2.571   5.800 -0.4481 -0.5134 -0.3987
17551SOL    HW154647   5.940   2.664   5.786  1.3355  0.0157  0.3873
17551SOL    HW254648   5.943   2.557   5.894 -0.1853 -0.8575 -0.4034
17552SOL     OW54649   5.518   8.237   6.814 -0.3111 -0.0779  0.3221
17552SOL    HW154650   5.490   8.313   6.763  0.5522  0.5571  0.7649
17552SOL    HW254651   5.562   8.180   6.750 -0.4315  0.0712  0.1050
17553SOL     OW54652   7.873   4.471   3.458  0.0082 -0.5771 -0.7828
17553SOL    HW154653   7.953   4.513   3.426  1.3800 -2.0486  0.4475
17553SOL    HW254654   7.837   4.532   3.522  0.5799 -0.1858 -0.8284
17554SOL     OW54655   2.579   2.139   8.689  0.0253 -0.1065  0.1159
17554SOL    HW154656   2.555   2.179   8.773  0.6905 -1.1680  0.8402
17554SOL    HW254657   2.668   2.170   8.672 -0.2727  0.4652 -0.4387
17555SOL     OW54658   5.581   5.114   2.666 -0.2129 -0.3508 -0.7835
17555SOL    HW154659   5.491   5.132   2.637 -0.3587 -0.3702 -0.3547
17555SOL    HW254660   5.583   5.019   2.678 -0.5421 -0.2111  0.5103
17556SOL     OW54661   7.486   1.159   6.839  0.1821 -0.1746 -0.0636
17556SOL    HW154662   7.411   1.195   6.791 -0.1224 -0.4359  0.2138
17556SOL    HW254663   7.561   1.177   6.783  0.1109  1.3384  0.3033
17557SOL     OW54664   1.879   2.121   3.508 -0.1467  0.3932  0.2745
17557SOL    HW154665   1.856   2.082   3.423 -1.3537  1.7305 -0.0482
17557SOL    HW254666   1.974   2.128   3.506 -0.2066  1.3680 -1.4351
17558SOL     OW54667   3.018   6.306   2.348  0.0749 -0.6726  0.0555
17558SOL    HW154668   3.087   6.250   2.383 -2.1645 -1.7710  3.1395
17558SOL    HW254669   2.994   6.363   2.421 -1.8722  0.0782 -1.0939
17559SOL     OW54670   2.588   2.865   6.543  0.3820  0.0279 -0.0189
17559SOL    HW154671   2.566   2.820   6.624  0.7403 -0.1080  0.0024
17559SOL    HW254672   2.570   2.958   6.561  2.7101  0.3388  1.0227
17560SOL     OW54673   5.421   7.787   4.299 -0.0368  0.1540  0.0091
17560SOL    HW154674   5.413   7.804   4.206 -1.4138  0.8913  0.2438
17560SOL    HW254675   5.370   7.708   4.314  0.1638  0.0477  0.1477
17561SOL     OW54676   0.613   4.119   5.769  0.4292 -0.2653 -0.4828
17561SOL    HW154677   0.583   4.062   5.698 -0.9353  0.6807 -0.7047
17561SOL    HW254678   0.540   4.179   5.784  1.4113  0.7331  0.4797
17562SOL     OW54679   2.379   4.084   1.686  0.2238 -0.2764  0.1226
17562SOL    HW154680   2.289   4.053   1.690  0.2388 -0.1803  1.6430
17562SOL    HW254681   2.373   4.179   1.696  0.4119 -0.0745 -1.3438
17563SOL     OW54682   1.378   4.705   2.878  0.6093  0.3080  0.1632
17563SOL    HW154683   1.463   4.684   2.917  1.0598 -0.2876 -1.0819
17563SOL    HW254684   1.315   4.690   2.948  1.0992 -3.2798  0.0581
17564SOL     OW54685   8.007   0.867   4.444 -0.5860 -0.1733 -0.8021
17564SOL    HW154686   7.982   0.808   4.516 -0.3859  0.1106 -0.4964
17564SOL    HW254687   7.960   0.948   4.462  2.7686  1.4965  1.5212
17565SOL     OW54688   5.078   6.787   1.408 -0.1888  0.5898  0.2295
17565SOL    HW154689   5.138   6.847   1.452 -1.1179  1.5958  0.1591
17565SOL    HW254690   5.094   6.801   1.314  2.7267 -2.4927  0.1117
17566SOL     OW54691   6.257   3.371   3.978  0.1145  0.1537  0.6537
17566SOL    HW154692   6.300   3.423   3.910 -0.7359 -0.7584 -0.6186
17566SOL    HW254693   6.243   3.434   4.049  1.7060  0.9507  0.3229
17567SOL     OW54694   6.857   8.399   1.321 -0.2986 -0.3536 -0.3091
17567SOL    HW154695   6.945   8.388   1.284  0.2083  0.8365  0.4982
17567SOL    HW254696   6.811   8.319   1.296  0.7170 -0.5787 -1.5522
17568SOL     OW54697   6.550   3.937   1.791  0.0417 -0.6597 -0.4269
17568SOL    HW154698   6.547   3.886   1.872 -1.4713 -1.1862 -0.7764
17568SOL    HW254699   6.548   4.028   1.820 -1.4894 -0.8381  0.1411
17569SOL     OW54700   7.412   6.534   6.827 -0.0184  0.4952 -0.0929
17569SOL    HW154701   7.360   6.465   6.867 -0.7698  0.3690 -1.2232
17569SOL    HW254702   7.347   6.596   6.794  0.5334  0.4777 -1.2749
17570SOL     OW54703   2.776   0.854   8.117  0.4157 -0.3952 -0.1247
17570SOL    HW154704   2.721   0.918   8.072  0.0266  0.6154  1.6744
17570SOL    HW254705   2.717   0.782   8.138 -0.0839  0.3244  1.0729
17571SOL     OW54706   8.748   5.393   0.491 -0.1979  0.2699 -0.3559
17571SOL    HW154707   8.716   5.442   0.416  0.5972  0.9525 -0.2572
17571SOL    HW254708   8.831   5.356   0.462 -0.2858 -0.1531 -0.0787
17572SOL     OW54709   1.766   2.558   1.928 -0.3030  0.2711 -0.3621
17572SOL    HW154710   1.733   2.631   1.980  0.1629  0.2199  0.0066
17572SOL    HW254711   1.710   2.485   1.952 -0.4492  0.3822 -0.3582
17573SOL     OW54712   5.086   2.257   7.647  0.9914  0.4653 -0.3146
17573SOL    HW154713   5.012   2.222   7.599  1.2232 -0.7180  0.1718
17573SOL    HW254714   5.161   2.245   7.588  0.9872  0.6313 -0.3552
17574SOL     OW54715   4.279   2.885   6.373 -0.1465 -0.3372 -0.3608
17574SOL    HW154716   4.273   2.978   6.397 -0.4815 -0.2126 -0.9008
17574SOL    HW254717   4.286   2.839   6.457 -1.1553  0.0894 -0.0223
17575SOL     OW54718   5.948   5.510   8.345 -0.2593  0.2474  0.1643
17575SOL    HW154719   6.003   5.434   8.327  1.9623  1.1783  2.4378
17575SOL    HW254720   5.923   5.543   8.259  2.3055 -0.5882 -0.9909
17576SOL     OW54721   4.668   1.938   0.281 -0.5193 -0.0346 -0.4490
17576SOL    HW154722   4.714   1.859   0.253 -0.3112  0.2200 -0.8259
17576SOL    HW254723   4.627   1.973   0.202  0.2319  0.7889 -0.4954
17577SOL     OW54724   0.689   0.057   2.865  0.1837  0.2570 -0.2187
17577SOL    HW154725   0.691   0.026   2.774  1.1679  0.8858 -0.4271
17577SOL    HW254726   0.597   0.073   2.883 -0.1850 -1.2297 -0.6308
17578SOL     OW54727   6.612   7.321   5.299 -0.9997  0.3511 -1.1138
17578SOL    HW154728   6.632   7.302   5.390 -1.1334 -0.3088 -1.2172
17578SOL    HW254729   6.605   7.235   5.257  0.5261  0.6555 -2.0676
17579SOL     OW54730   1.335   4.153   3.871  0.1649  0.2118 -0.1206
17579SOL    HW154731   1.315   4.133   3.779  0.6030 -1.2881  0.0886
17579SOL    HW254732   1.250   4.152   3.915 -0.1981  2.1084 -0.6801
17580SOL     OW54733   6.808   6.805   4.632  0.3653 -0.3188  0.4068
17580SOL    HW154734   6.733   6.747   4.622 -0.6140  0.6115  1.9712
17580SOL    HW254735   6.806   6.832   4.724  1.0282  1.8393 -0.1412
17581SOL     OW54736   5.393   6.420   7.216  0.0963  0.1887  0.0361
17581SOL    HW154737   5.482   6.385   7.219  0.0441  0.0210 -0.3324
17581SOL    HW254738   5.404   6.515   7.217  0.2598  0.1662  0.4826
17582SOL     OW54739   4.620   1.853   4.378  0.3238  0.2541 -0.3308
17582SOL    HW154740   4.708   1.820   4.359  0.3660  0.6572 -0.8379
17582SOL    HW254741   4.611   1.932   4.324 -0.1567  0.5065  0.1030
17583SOL     OW54742   7.325   6.101   6.423  0.5381  0.1115  0.5628
17583SOL    HW154743   7.353   6.021   6.378 -0.4380 -0.2923  0.6698
17583SOL    HW254744   7.284   6.071   6.504  0.8894  0.7645  0.9917
17584SOL     OW54745   7.232   0.062   3.613 -0.0067  0.6482  0.4443
17584SOL    HW154746   7.215  -0.023   3.572  0.9084 -0.2949  1.8978
17584SOL    HW254747   7.244   0.041   3.706  1.6238  2.1829  0.6251
17585SOL     OW54748   0.891   0.246   1.085 -0.2601 -0.1333  0.5846
17585SOL    HW154749   0.957   0.193   1.128 -0.9462 -0.0482  1.7892
17585SOL    HW254750   0.827   0.265   1.154 -1.5641 -0.2670 -0.5504
17586SOL     OW54751   3.734   3.162   7.640  0.5186  0.1447 -0.4248
17586SOL    HW154752   3.779   3.222   7.582 -1.3671  1.2418 -0.8564
17586SOL    HW254753   3.727   3.081   7.591  1.8315 -0.0033 -0.3979
17587SOL     OW54754   2.853   5.374   0.372 -0.1957 -0.2854 -0.0030
17587SOL    HW154755   2.933   5.366   0.320 -0.3346 -0.0428 -0.2527
17587SOL    HW254756   2.789   5.321   0.325 -0.0727 -0.8194  0.4203
17588SOL     OW54757   1.341   5.319   3.128  0.0347  0.1981  0.1065
17588SOL    HW154758   1.420   5.331   3.076  0.7079  1.1243  1.3007
17588SOL    HW254759   1.272   5.362   3.077  0.4940  0.3021 -0.4351
17589SOL     OW54760   4.134   8.295   3.578 -0.2476 -0.1106 -0.1551
17589SOL    HW154761   4.152   8.378   3.534  2.1207 -0.1117  0.7029
17589SOL    HW254762   4.180   8.301   3.661 -0.1900 -2.2185  0.0238
17590SOL     OW54763   8.481   6.547   1.027 -0.2593 -0.2893  0.9458
17590SOL    HW154764   8.440   6.481   0.970  0.2552 -0.5088  0.8278
17590SOL    HW254765   8.414   6.614   1.037 -1.1365 -1.2504  1.8023
17591SOL     OW54766   1.784   5.662   2.223  0.0566  0.3625 -0.3061
17591SOL    HW154767   1.866   5.664   2.272  0.7162 -2.1431 -1.1440
17591SOL    HW254768   1.717   5.646   2.289  1.0138 -3.8322 -0.0430
17592SOL     OW54769   8.851   0.210   4.710 -0.0326 -0.2329  0.2266
17592SOL    HW154770   8.916   0.148   4.677 -0.4935 -0.3394 -0.5228
17592SOL    HW254771   8.769   0.183   4.667 -0.5541 -0.0612  1.0920
17593SOL     OW54772   1.673   0.119   8.125  0.3627  0.1343 -0.0406
17593SOL    HW154773   1.758   0.119   8.081  0.2875  0.6255 -0.1940
17593SOL    HW254774   1.687   0.067   8.205  0.2292 -1.6964 -1.1514
17594SOL     OW54775   7.326   8.209   4.491  0.0875 -0.9493 -0.1515
17594SOL    HW154776   7.238   8.173   4.501 -0.3517  0.3420  0.9960
17594SOL    HW254777   7.312   8.302   4.476  1.2600 -0.4435  1.5449
17595SOL     OW54778   0.676   8.671   6.250 -0.1757 -0.1985 -1.1865
17595SOL    HW154779   0.727   8.748   6.276  0.3005 -0.9411  0.1828
17595SOL    HW254780   0.639   8.695   6.165 -2.2530  2.5978  0.3436
17596SOL     OW54781   7.485   1.128   3.531 -0.0219  0.1431  0.4798
17596SOL    HW154782   7.500   1.164   3.619  1.0974 -0.0173  0.3746
17596SOL    HW254783   7.438   1.197   3.484 -2.2561 -0.4549  1.7174
17597SOL     OW54784   4.973   3.069   2.690 -0.2647  0.9729 -0.8135
17597SOL    HW154785   4.947   3.058   2.782 -0.4518 -3.0561 -1.1614
17597SOL    HW254786   5.068   3.080   2.693  0.1789 -2.0885 -0.0844
17598SOL     OW54787   1.500   1.159   6.586 -0.1699  0.6423  0.3424
17598SOL    HW154788   1.502   1.210   6.505 -1.4142  1.6982  0.9472
17598SOL    HW254789   1.447   1.082   6.564 -0.0029  0.6168  0.0098
17599SOL     OW54790   4.921   1.043   3.554 -0.3539 -0.4001 -0.2664
17599SOL    HW154791   4.845   1.101   3.555 -0.0378  0.0287 -0.3090
17599SOL    HW254792   4.961   1.055   3.640 -1.3443 -2.0096  0.4434
17600SOL     OW54793   0.575   1.529   2.605  0.1555 -0.4246  0.3160
17600SOL    HW154794   0.654   1.579   2.625 -0.3232  0.0206  1.1366
17600SOL    HW254795   0.573   1.459   2.670 -0.0414 -0.5362  0.1920
17601SOL     OW54796   4.635   4.503   1.858 -0.1412  0.3688  0.0877
17601SOL    HW154797   4.545   4.535   1.861  0.1710  1.4261 -0.9915
17601SOL    HW254798   4.659   4.508   1.766  0.2048 -2.3284 -0.0514
17602SOL     OW54799   1.729   4.854   7.889 -0.2546  0.6420 -0.0304
17602SOL    HW154800   1.687   4.939   7.872  1.2087  0.9006 -2.8429
17602SOL    HW254801   1.719   4.805   7.808  1.2159 -0.8936  0.6540
17603SOL     OW54802   2.914   7.845   4.138 -0.6440  0.4527  0.2863
17603SOL    HW154803   2.890   7.847   4.231 -0.1842  1.5942  0.3965
17603SOL    HW254804   2.863   7.915   4.099 -0.6137  0.1678 -0.2773
17604SOL     OW54805   4.550   5.743   6.394  0.3498 -0.3271  0.2507
17604SOL    HW154806   4.613   5.724   6.463 -0.3014  1.3882  1.3991
17604SOL    HW254807   4.472   5.775   6.440 -1.8143 -3.2563 -1.0235
17605SOL     OW54808   7.849   8.770   1.847  0.4616  0.5129 -0.6243
17605SOL    HW154809   7.836   8.698   1.786 -2.2143  0.5759 -0.2476
17605SOL    HW254810   7.772   8.769   1.903  1.0123  2.8153  0.3156
17606SOL     OW54811   5.078   7.333   7.830  0.1460 -0.2017  0.2193
17606SOL    HW154812   5.107   7.380   7.908 -1.4170  0.5298  0.4100
17606SOL    HW254813   5.129   7.370   7.759  1.1173 -0.4055  0.7908
17607SOL     OW54814   1.521   3.114   4.729  0.1303  0.5856  0.6657
17607SOL    HW154815   1.575   3.038   4.709 -1.8559 -0.6300 -0.4331
17607SOL    HW254816   1.583   3.183   4.751  2.0660 -0.9020  0.1154
17608SOL     OW54817   2.908   8.662   0.684  0.2582 -0.4274 -0.1370
17608SOL    HW154818   2.822   8.675   0.724  0.1941  0.4676 -0.5329
17608SOL    HW254819   2.964   8.726   0.728  0.7774 -1.1223  0.2416
17609SOL     OW54820   2.055   0.250   2.047  0.0775 -0.0697  0.3355
17609SOL    HW154821   2.028   0.166   2.009  0.1765 -0.5294  1.2425
17609SOL    HW254822   1.990   0.313   2.016  0.1336 -0.4266 -0.5466
17610SOL     OW54823   0.051   7.458   4.933  0.1125  0.2825  0.3153
17610SOL    HW154824   0.018   7.370   4.953  0.6983  0.1984  0.9255
17610SOL    HW254825   0.145   7.452   4.944  0.2365  0.8142 -0.3510
17611SOL     OW54826   7.297   7.575   6.925  0.5920 -0.1196 -0.3137
17611SOL    HW154827   7.333   7.615   6.846  0.3592 -0.6666 -0.7044
17611SOL    HW254828   7.355   7.604   6.995  1.3802 -0.4167 -0.8264
17612SOL     OW54829   6.978   0.134   3.894  0.8564 -0.3677  0.6531
17612SOL    HW154830   6.988   0.227   3.918  0.9816 -0.4342  0.8607
17612SOL    HW254831   6.953   0.136   3.802  2.7130 -0.1978  0.1176
17613SOL     OW54832   5.774   0.988   3.804  0.6124  0.6932 -0.0070
17613SOL    HW154833   5.807   0.948   3.723 -0.4977 -1.3041  0.4570
17613SOL    HW254834   5.784   1.082   3.789  0.5432  0.3975 -2.4411
17614SOL     OW54835   8.100   6.687   5.845 -0.0407 -0.2337 -0.1032
17614SOL    HW154836   8.053   6.761   5.805 -0.4830  0.3494  1.4293
17614SOL    HW254837   8.168   6.666   5.782 -0.6290  0.7250 -1.1122
17615SOL     OW54838   1.780   7.054   0.571  0.0452  0.5845 -0.2174
17615SOL    HW154839   1.847   7.060   0.502 -0.8736  1.8311 -1.0420
17615SOL    HW254840   1.698   7.042   0.524 -0.3351 -0.9809  0.7891
17616SOL     OW54841   2.580   8.809   2.855 -0.5662 -0.1706  0.1294
17616SOL    HW154842   2.594   8.793   2.762 -1.3201  1.9871 -0.4022
17616SOL    HW254843   2.574   8.721   2.893  1.9563 -1.1661 -1.4543
17617SOL     OW54844   2.023   4.568   3.111 -0.0174 -0.0134 -0.3368
17617SOL    HW154845   1.988   4.636   3.053 -1.0570  0.6827  1.0617
17617SOL    HW254846   2.091   4.525   3.058  0.9569  2.3451 -1.1537
17618SOL     OW54847   3.999   6.051   0.392 -0.0267 -0.1871 -0.8997
17618SOL    HW154848   4.092   6.074   0.390  0.2741 -0.4584  2.5837
17618SOL    HW254849   3.955   6.122   0.345  1.8223  0.8454 -1.1585
17619SOL     OW54850   5.171   2.739   8.353 -0.1996 -0.2272  0.3085
17619SOL    HW154851   5.116   2.813   8.380 -1.6647 -1.3454  0.5088
17619SOL    HW254852   5.190   2.756   8.261  0.8756  1.2200  0.7654
17620SOL     OW54853   6.667   6.509   6.388  0.2583  0.2863 -0.4990
17620SOL    HW154854   6.682   6.470   6.301 -0.6024 -0.6401 -0.2516
17620SOL    HW254855   6.573   6.501   6.401  0.3001  0.9813  0.2754
17621SOL     OW54856   3.638   7.487   7.564 -0.1411 -0.4176 -0.6629
17621SOL    HW154857   3.704   7.463   7.499  1.2104  1.0178  0.1030
17621SOL    HW254858   3.686   7.536   7.631 -2.3490  3.3054 -1.4732
17622SOL     OW54859   5.615   5.933   0.950  0.3382 -0.1218 -0.1908
17622SOL    HW154860   5.653   5.983   0.879  1.3110 -1.1921 -0.4589
17622SOL    HW254861   5.562   5.866   0.907 -0.3679  0.2128  0.1396
17623SOL     OW54862   7.078   2.322   3.153  0.2237 -0.3936 -0.1942
17623SOL    HW154863   7.106   2.240   3.112 -0.0071 -0.4073 -0.3255
17623SOL    HW254864   7.137   2.388   3.117  0.4319 -0.5094 -0.0624
17624SOL     OW54865   5.435   5.004   5.350 -1.3523  0.0626 -0.3926
17624SOL    HW154866   5.386   5.056   5.413  3.2762  3.3719  1.0610
17624SOL    HW254867   5.444   5.062   5.273  3.1125  1.5237  0.8984
17625SOL     OW54868   7.108   1.333   1.346  0.0898 -0.4439 -0.4233
17625SOL    HW154869   7.197   1.310   1.373  0.8207 -0.5357 -2.6348
17625SOL    HW254870   7.118   1.359   1.254 -2.1456 -0.2132 -0.6451
17626SOL     OW54871   3.925   2.680   6.519  0.1658  0.1630  0.3743
17626SOL    HW154872   3.870   2.659   6.595  1.9491 -0.7892  1.4593
17626SOL    HW254873   3.938   2.597   6.474 -1.3052  0.8026 -1.3478
17627SOL     OW54874   6.474   3.858   0.842 -0.4865  0.2500 -0.0041
17627SOL    HW154875   6.552   3.903   0.811  0.4453 -0.5781  1.0478
17627SOL    HW254876   6.470   3.778   0.790 -1.8850  1.2765 -1.5571
17628SOL     OW54877   4.171   5.484   1.419  0.5447  0.5652  0.0660
17628SOL    HW154878   4.078   5.471   1.436  0.3639  0.4016 -0.9628
17628SOL    HW254879   4.214   5.471   1.503 -0.4455  1.5284  0.7435
17629SOL     OW54880   1.487   5.784   4.490 -0.1511 -0.4133  0.0973
17629SOL    HW154881   1.410   5.830   4.524 -0.5935 -0.5956 -0.6314
17629SOL    HW254882   1.472   5.692   4.514  0.1748 -0.3460  0.5566
17630SOL     OW54883   6.116   5.053   8.754  0.2962  0.4004 -0.0726
17630SOL    HW154884   6.153   4.966   8.770  0.2687  0.6042  1.1581
17630SOL    HW254885   6.027   5.035   8.723  0.4369 -0.0143 -0.2507
17631SOL     OW54886   2.379   0.421   8.213  0.6321 -0.5038 -0.9365
17631SOL    HW154887   2.407   0.343   8.166  2.0398 -1.3052  1.0771
17631SOL    HW254888   2.449   0.437   8.276  0.4530  2.5165 -1.3985
17632SOL     OW54889   4.442   2.955   7.396 -0.1621  0.6100 -0.2829
17632SOL    HW154890   4.484   2.904   7.327 -0.8064 -0.1084 -0.1615
17632SOL    HW254891   4.427   2.892   7.467 -1.0328  0.9457 -0.1572
17633SOL     OW54892   6.696   5.566   0.903 -0.3525  0.7224  0.0544
17633SOL    HW154893   6.687   5.630   0.831  0.0219  1.0522  0.2956
17633SOL    HW254894   6.607   5.553   0.934 -0.5161  0.5999 -0.4542
17634SOL     OW54895   2.813   4.306   5.864  0.1342 -0.4739 -0.2410
17634SOL    HW154896   2.875   4.252   5.815  0.0258  0.8296 -1.9117
17634SOL    HW254897   2.842   4.299   5.955  2.1054 -0.7292 -0.8392
17635SOL     OW54898   3.273   0.813   3.528  0.3944 -0.1851 -0.4350
17635SOL    HW154899   3.361   0.777   3.542  0.3410 -0.4781 -0.8234
17635SOL    HW254900   3.277   0.851   3.440  0.5510  1.0841  0.1099
17636SOL     OW54901   6.104   1.682   0.754  0.1151  0.0053 -0.0246
17636SOL    HW154902   6.182   1.738   0.756  0.0976  0.0313 -0.0625
17636SOL    HW254903   6.101   1.643   0.841  0.4414 -0.3720 -0.1784
17637SOL     OW54904   0.129   7.340   3.071 -0.0395  0.7445  0.6623
17637SOL    HW154905   0.093   7.251   3.073  0.5377  0.5069  0.6724
17637SOL    HW254906   0.062   7.391   3.025 -0.4326  0.3349  0.7643
17638SOL     OW54907   6.261   6.860   4.247 -0.0690  0.2264  0.8113
17638SOL    HW154908   6.318   6.900   4.182 -1.5616  3.1867  1.1605
17638SOL    HW254909   6.321   6.825   4.313  1.3734  1.2420  0.0877
17639SOL     OW54910   8.382   0.105   5.161  0.0061  0.3565  0.0875
17639SOL    HW154911   8.439   0.182   5.166  0.2402  0.1176  2.5527
17639SOL    HW254912   8.364   0.083   5.252 -1.1301 -1.7419 -0.5740
17640SOL     OW54913   0.540   7.728   8.241 -0.1524  0.6046  0.3343
17640SOL    HW154914   0.552   7.670   8.316 -1.0922  0.8482  0.6863
17640SOL    HW254915   0.470   7.787   8.268 -0.4637  0.7270 -0.7140
17641SOL     OW54916   5.287   6.676   1.700 -0.0740  0.2952 -0.4949
17641SOL    HW154917   5.209   6.621   1.706  0.0103  0.3199  1.5619
17641SOL    HW254918   5.257   6.764   1.725  0.6473  0.2456  0.6066
17642SOL     OW54919   7.076   0.010   7.482  0.1331 -0.0942  0.4324
17642SOL    HW154920   6.987   0.027   7.515 -0.5333 -1.0096 -0.7785
17642SOL    HW254921   7.086  -0.085   7.491  0.3482 -0.2130 -0.9280
17643SOL     OW54922   7.991   7.520   0.688  0.2186  0.1326  0.2723
17643SOL    HW154923   8.040   7.582   0.741  3.4397 -0.4950 -1.6825
17643SOL    HW254924   7.970   7.568   0.608 -1.9610  0.1790  0.7966
17644SOL     OW54925   6.895   2.221   2.867 -0.3925  0.2513 -0.0898
17644SOL    HW154926   6.920   2.263   2.785  1.2559 -0.1181  0.1969
17644SOL    HW254927   6.875   2.293   2.926 -2.1566  0.5175 -0.9389
17645SOL     OW54928   3.511   8.193   2.824  0.2603  0.3735 -0.1429
17645SOL    HW154929   3.528   8.112   2.776 -0.3722 -1.1468  2.0240
17645SOL    HW254930   3.427   8.223   2.791 -0.8210 -1.3815  0.8589
17646SOL     OW54931   4.134   3.866   0.518  0.2829  0.0899 -0.0739
17646SOL    HW154932   4.193   3.891   0.447 -0.3046  1.1751 -0.2071
17646SOL    HW254933   4.164   3.916   0.594  0.2648 -0.2609  0.1647
17647SOL     OW54934   4.890   0.603   7.367 -0.0260 -0.4373  0.4370
17647SOL    HW154935   4.861   0.530   7.313  2.8704 -1.1467 -0.3134
17647SOL    HW254936   4.979   0.579   7.395  1.0482  2.7734  0.1615
17648SOL     OW54937   7.366   3.959   7.654  0.6588 -0.0698  0.2307
17648SOL    HW154938   7.323   4.000   7.729 -2.1055  1.8560 -2.1784
17648SOL    HW254939   7.378   4.030   7.592 -0.1735 -2.0754 -2.4152
17649SOL     OW54940   6.778   8.257   4.126  0.5430 -0.0848  0.1892
17649SOL    HW154941   6.748   8.281   4.213  1.8442  2.0454  0.1187
17649SOL    HW254942   6.845   8.190   4.142  2.7698  2.1991  1.1478
17650SOL     OW54943   1.724   3.583   1.102 -0.1288  0.2651 -0.1015
17650SOL    HW154944   1.808   3.576   1.057 -0.1619 -0.4425 -0.0622
17650SOL    HW254945   1.735   3.655   1.164  0.1420  0.7955 -0.7485
17651SOL     OW54946   2.952   1.279   4.938  0.3468  0.5656  0.2669
17651SOL    HW154947   2.917   1.278   5.028 -1.1429 -2.4733 -0.1983
17651SOL    HW254948   3.038   1.239   4.945 -0.1235 -0.4695  0.2634
17652SOL     OW54949   3.784   1.317   4.750 -0.0204 -0.1536  0.0177
17652SOL    HW154950   3.751   1.406   4.768  0.4850 -0.2613  1.5917
17652SOL    HW254951   3.738   1.291   4.670 -0.6134  1.3011 -0.1536
17653SOL     OW54952   0.007   4.166   0.309 -0.4529  0.0945  0.0439
17653SOL    HW154953   0.102   4.173   0.320 -0.3918 -0.6799  0.0983
17653SOL    HW254954  -0.021   4.106   0.378 -0.7849 -0.7605 -0.8009
17654SOL     OW54955   6.436   8.786   8.248 -0.0008 -0.2286 -0.4964
17654SOL    HW154956   6.436   8.753   8.158 -0.3424 -0.2050 -0.5051
17654SOL    HW254957   6.522   8.827   8.258  0.4607 -1.1633 -0.4717
17655SOL     OW54958   2.631   6.640   8.386  0.1147 -0.1513  0.5269
17655SOL    HW154959   2.723   6.612   8.384  1.0997  2.7597  0.9629
17655SOL    HW254960   2.606   6.648   8.294 -0.5782 -3.2064  0.3246
17656SOL     OW54961   6.106   1.219   5.739 -0.4190 -0.4379 -0.3795
17656SOL    HW154962   6.087   1.127   5.758  1.3527 -0.4662  1.6029
17656SOL    HW254963   6.025   1.265   5.761 -0.2988 -1.1833  1.7987
17657SOL     OW54964   4.381   0.247   7.476 -0.1193 -0.2566  0.5511
17657SOL    HW154965   4.419   0.334   7.458  1.2070 -0.7682  0.7794
17657SOL    HW254966   4.427   0.216   7.553 -0.3179 -1.3362  0.2498
17658SOL     OW54967   1.281   4.200   7.570 -0.1105 -0.0574 -0.0885
17658SOL    HW154968   1.240   4.142   7.505  0.9776 -0.4158 -0.4762
17658SOL    HW254969   1.352   4.243   7.522 -0.3294  0.9116  0.4416
17659SOL     OW54970   8.687   6.957   8.377  0.4265 -0.6379  0.3374
17659SOL    HW154971   8.779   6.945   8.400  0.2655  0.4356  1.6325
17659SOL    HW254972   8.679   7.050   8.356 -0.5506 -0.4964  1.2322
17660SOL     OW54973   4.891   4.701   6.366 -0.1955 -0.2960 -0.3810
17660SOL    HW154974   4.824   4.703   6.435  2.0132 -0.7031  1.9242
17660SOL    HW254975   4.937   4.618   6.380  1.7395  0.6374 -0.8865
17661SOL     OW54976   3.144   7.099   1.823 -0.0222  0.2874 -0.3240
17661SOL    HW154977   3.205   7.070   1.891  1.7705  0.7607 -1.6566
17661SOL    HW254978   3.059   7.096   1.865  0.9939  0.4323  1.9004
17662SOL     OW54979   6.422   8.380   1.698 -0.9509  0.7750  0.2679
17662SOL    HW154980   6.403   8.451   1.760  0.7553  0.4865  1.2082
17662SOL    HW254981   6.472   8.316   1.750  0.3395  0.4034 -1.3462
17663SOL     OW54982   3.340   0.958   7.588  0.3262  0.2018 -0.3083
17663SOL    HW154983   3.343   0.870   7.550  2.4633 -0.1541  0.5417
17663SOL    HW254984   3.291   0.947   7.670 -2.9552  0.6812 -2.0235
17664SOL     OW54985   7.481   0.405   6.430 -0.3341  0.0794 -0.5530
17664SOL    HW154986   7.529   0.322   6.427  0.9668  0.6346  2.1682
17664SOL    HW254987   7.528   0.458   6.495 -3.2551  1.5688  0.5309
17665SOL     OW54988   0.503   4.638   6.393  0.0465  0.0287 -0.0032
17665SOL    HW154989   0.453   4.689   6.457  1.6905  0.4152  1.0457
17665SOL    HW254990   0.595   4.655   6.415  0.6954  0.2068 -2.5229
17666SOL     OW54991   5.405   3.054   7.657 -0.0167 -0.0850 -0.1051
17666SOL    HW154992   5.382   2.963   7.677 -0.3187  0.4014  2.0229
17666SOL    HW254993   5.496   3.050   7.630  0.0498 -0.9962  0.2052
17667SOL     OW54994   2.786   3.352   3.366 -0.5086  0.1735 -0.5612
17667SOL    HW154995   2.756   3.358   3.456  0.0712  0.0985 -0.3590
17667SOL    HW254996   2.856   3.287   3.367 -0.6115  0.0462 -1.0943
17668SOL     OW54997   4.210   3.752   8.072 -0.2086 -0.3706 -0.2721
17668SOL    HW154998   4.166   3.773   7.990 -1.2952 -0.6085  0.2274
17668SOL    HW254999   4.158   3.680   8.109 -1.3514  1.4074  1.8448
17669SOL     OW55000   7.739   0.778   3.624  0.3875  0.2713 -0.4782
17669SOL    HW155001   7.828   0.795   3.592  0.7708 -1.1568 -0.2606
17669SOL    HW255002   7.696   0.733   3.551  0.2279 -0.0813 -0.1719
17670SOL     OW55003   8.738   6.739   8.222 -0.6305 -0.2837 -0.0343
17670SOL    HW155004   8.687   6.675   8.270 -0.8731 -0.5945 -0.6975
17670SOL    HW255005   8.710   6.824   8.257 -2.0325 -0.4141 -0.7702
17671SOL     OW55006   8.081   4.849   1.904 -0.1868 -0.3356  0.0863
17671SOL    HW155007   8.020   4.784   1.940 -0.6087 -0.8328 -1.4512
17671SOL    HW255008   8.105   4.903   1.979 -3.3834  0.5984  0.6079
17672SOL     OW55009   0.977   4.055   4.231  0.2899 -0.6086  0.4270
17672SOL    HW155010   1.009   4.125   4.174  0.4674 -1.2456 -0.2698
17672SOL    HW255011   0.924   4.101   4.297  1.9173  0.3645  1.1088
17673SOL     OW55012   1.655   4.031   0.518  0.4341 -0.1221 -0.3127
17673SOL    HW155013   1.598   4.058   0.590  0.3722  0.5662 -0.6065
17673SOL    HW255014   1.685   3.944   0.543  0.0357 -0.0917  0.3168
17674SOL     OW55015   5.621   6.781   4.319 -0.1574  0.0016 -0.0347
17674SOL    HW155016   5.608   6.875   4.336 -3.2693 -0.2014 -0.5963
17674SOL    HW255017   5.683   6.753   4.386 -1.1319  1.9820  1.8461
17675SOL     OW55018   5.082   0.925   2.096 -0.1146  0.0172  0.0601
17675SOL    HW155019   5.148   0.876   2.145 -1.2745 -0.6232  1.0335
17675SOL    HW255020   5.036   0.859   2.044  0.3957  0.5457 -1.1017
17676SOL     OW55021   4.838   3.316   5.368 -0.4977 -0.1719 -0.4040
17676SOL    HW155022   4.755   3.269   5.359 -1.0369  0.4642  0.9724
17676SOL    HW255023   4.815   3.394   5.418  0.9485 -0.0363  0.0708
17677SOL     OW55024   1.076   0.733   6.228 -0.1044 -0.3893  0.3070
17677SOL    HW155025   1.021   0.675   6.281 -0.3561 -0.6968 -0.2879
17677SOL    HW255026   1.013   0.789   6.182  0.0853 -0.5605 -0.1677
17678SOL     OW55027   5.964   1.780   6.562  0.3643  0.6221 -0.6244
17678SOL    HW155028   5.891   1.731   6.525  0.7956  0.3923 -1.1887
17678SOL    HW255029   5.946   1.871   6.536  0.1792  0.5954 -0.5937
17679SOL     OW55030   2.168   0.295   8.415 -0.3588 -0.0504 -0.5630
17679SOL    HW155031   2.174   0.359   8.485  0.6998 -0.9224  0.1835
17679SOL    HW255032   2.238   0.320   8.354  1.4147 -1.5720  0.7148
17680SOL     OW55033   0.856   7.578   7.656 -0.3514 -0.2953  0.0520
17680SOL    HW155034   0.774   7.587   7.704 -0.1715  0.0723  0.2931
17680SOL    HW255035   0.908   7.653   7.684 -1.0184  1.1315 -2.2609
17681SOL     OW55036   1.645   1.547   2.918  0.5171 -0.3533  0.5073
17681SOL    HW155037   1.646   1.590   2.832  1.0293  1.7942  1.4997
17681SOL    HW255038   1.738   1.529   2.937  0.5001  0.0427  0.9890
17682SOL     OW55039   4.001   5.895   4.804  0.5447 -0.1423 -0.5029
17682SOL    HW155040   3.907   5.910   4.816  0.2031 -1.3537 -1.4384
17682SOL    HW255041   4.025   5.836   4.876  1.0023  1.5585  0.7845
17683SOL     OW55042   3.537   7.118   0.984 -0.3235  0.3813  0.4768
17683SOL    HW155043   3.472   7.091   1.049 -0.9075 -0.3980 -0.4110
17683SOL    HW255044   3.547   7.212   0.998 -0.1548  0.1726  1.9396
17684SOL     OW55045   2.118   4.906   7.471 -0.6190 -0.2525  0.1584
17684SOL    HW155046   2.052   4.969   7.501 -1.3196 -0.9190  0.0309
17684SOL    HW255047   2.202   4.952   7.483 -1.2105  1.3608 -1.4802
17685SOL     OW55048   8.434   8.129   7.352 -0.0148  0.2341 -0.4125
17685SOL    HW155049   8.368   8.131   7.421 -1.1620 -1.0130 -1.4130
17685SOL    HW255050   8.483   8.048   7.369  1.2531  1.1264  0.2952
17686SOL     OW55051   8.599   3.430   8.193 -0.0414  0.3720  0.1538
17686SOL    HW155052   8.654   3.368   8.242  0.1911 -0.0347 -0.6027
17686SOL    HW255053   8.660   3.497   8.162  0.4880 -1.1545 -2.4561
17687SOL     OW55054   1.758   2.514   5.016  0.2167 -0.0770  0.1477
17687SOL    HW155055   1.816   2.520   4.941 -1.8613  2.9896 -1.4318
17687SOL    HW255056   1.711   2.431   5.004  0.3732  0.0667 -1.6076
17688SOL     OW55057   3.638   6.449   4.457 -0.0159 -0.3571 -0.0147
17688SOL    HW155058   3.634   6.397   4.537 -0.3099 -0.4801 -0.1071
17688SOL    HW255059   3.668   6.389   4.389  0.0037 -0.3124 -0.0462
17689SOL     OW55060   4.263   5.611   2.698  0.0705  0.0481 -0.2815
17689SOL    HW155061   4.200   5.662   2.749  0.1541 -1.2361  1.1874
17689SOL    HW255062   4.209   5.563   2.635 -0.4950 -1.1503  1.0576
17690SOL     OW55063   8.679   2.283   7.576  0.0148  0.1252  0.0650
17690SOL    HW155064   8.584   2.270   7.576  0.2199 -1.8394  0.8161
17690SOL    HW255065   8.691   2.373   7.545 -1.9773 -0.2178 -2.0470
17691SOL     OW55066   4.113   8.017   8.329 -0.1637  0.1921 -0.5046
17691SOL    HW155067   4.128   7.929   8.363  0.1134 -0.1183 -1.4163
17691SOL    HW255068   4.072   8.004   8.244  0.7395  0.9173 -1.0697
17692SOL     OW55069   3.459   7.755   4.251  0.0971  0.2082 -0.5553
17692SOL    HW155070   3.510   7.832   4.278  1.2685 -1.0838  1.1279
17692SOL    HW255071   3.385   7.753   4.312 -0.7761  0.7831 -1.5474
17693SOL     OW55072   1.364   8.516   1.663 -0.1468 -0.1521  0.7066
17693SOL    HW155073   1.297   8.564   1.615  2.0270  0.7411 -1.7062
17693SOL    HW255074   1.346   8.424   1.645 -0.7860  0.0659  0.2035
17694SOL     OW55075   8.810   5.401   5.882 -0.3017  0.2157  0.0122
17694SOL    HW155076   8.852   5.325   5.843 -1.0367  0.0312 -0.4356
17694SOL    HW255077   8.766   5.445   5.809  1.8607  2.2934 -0.1866
17695SOL     OW55078   1.687   5.285   8.810  0.3386 -0.1145 -0.3580
17695SOL    HW155079   1.673   5.321   8.722 -0.2572 -0.6777 -0.5036
17695SOL    HW255080   1.753   5.341   8.849 -1.0241  1.5414 -0.3335
17696SOL     OW55081   3.382   6.914   5.736 -0.1519 -0.1985 -0.4166
17696SOL    HW155082   3.298   6.918   5.691 -0.5082  1.4848  0.3200
17696SOL    HW255083   3.444   6.954   5.674 -0.3281  0.5672 -0.1153
17697SOL     OW55084   0.058   4.708   2.579 -0.0747 -0.1296  0.0963
17697SOL    HW155085   0.101   4.681   2.498  0.3443 -0.3170  0.3788
17697SOL    HW255086   0.048   4.803   2.570 -0.3051 -0.1868 -0.3024
17698SOL     OW55087   0.764   1.182   5.982 -0.3350 -0.7730  0.1698
17698SOL    HW155088   0.769   1.117   5.912 -0.0357  0.7239 -1.2474
17698SOL    HW255089   0.672   1.182   6.008 -0.2319 -2.1779  0.6444
17699SOL     OW55090   3.964   3.380   5.709 -0.0006  0.6514 -0.5462
17699SOL    HW155091   4.038   3.428   5.672  0.0065 -1.1896 -3.1503
17699SOL    HW255092   4.003   3.311   5.763  0.1341  0.5148 -0.8204
17700SOL     OW55093   1.433   1.756   3.232 -0.1395 -0.3653 -0.0065
17700SOL    HW155094   1.433   1.783   3.324 -0.3825 -2.1088  0.5312
17700SOL    HW255095   1.497   1.813   3.191 -0.9236  1.3163  0.9645
17701SOL     OW55096   0.176   3.651   7.514 -0.0491 -1.0358 -0.4585
17701SOL    HW155097   0.262   3.693   7.520 -0.4697  0.0812 -1.6639
17701SOL    HW255098   0.114   3.718   7.544 -0.5261 -1.7444  0.1700
17702SOL     OW55099   6.203   8.631   7.344 -0.1527  0.1424  0.3652
17702SOL    HW155100   6.144   8.639   7.269 -0.3303 -1.5335  0.2923
17702SOL    HW255101   6.267   8.566   7.317  0.5359  0.4481  1.2119
17703SOL     OW55102   4.976   1.402   2.832  0.3122 -0.2007 -0.2013
17703SOL    HW155103   4.928   1.408   2.914 -0.9618 -0.8905 -0.8705
17703SOL    HW255104   5.013   1.489   2.820  0.6106 -0.1207  1.1450
17704SOL     OW55105   6.553   6.410   7.210 -0.0095  0.1575 -0.0589
17704SOL    HW155106   6.468   6.421   7.252  0.3315  1.2693  0.3783
17704SOL    HW255107   6.533   6.397   7.117 -0.6582  0.5390  0.0205
17705SOL     OW55108   6.404   5.650   2.054  0.0107 -0.0749 -0.1294
17705SOL    HW155109   6.354   5.574   2.082 -0.4485  0.9957  2.1445
17705SOL    HW255110   6.488   5.643   2.099 -0.8947  1.8976  2.0580
17706SOL     OW55111   1.843   2.616   3.560  0.0363  0.2555  0.2191
17706SOL    HW155112   1.844   2.561   3.481 -0.3068  0.7583 -0.1417
17706SOL    HW255113   1.805   2.699   3.531 -0.4208  0.3269  0.9920
17707SOL     OW55114   3.956   1.412   5.929 -0.4394 -0.1594  0.3767
17707SOL    HW155115   3.930   1.330   5.971 -0.6633 -0.3950 -0.2104
17707SOL    HW255116   4.022   1.449   5.988 -0.2343 -0.8248  0.5782
17708SOL     OW55117   1.848   8.154   8.883  0.5401  0.1427  0.1284
17708SOL    HW155118   1.925   8.192   8.926  0.9737 -0.1885 -0.3300
17708SOL    HW255119   1.793   8.229   8.860  1.7602  0.5986 -1.4934
17709SOL     OW55120   6.558   0.085   1.564  0.0954 -0.2105 -0.1482
17709SOL    HW155121   6.524  -0.004   1.569  0.2821 -0.2739  0.0394
17709SOL    HW255122   6.496   0.132   1.509  0.1044 -0.5085 -0.4124
17710SOL     OW55123   8.658   8.414   0.665  0.6124  0.2959  0.2081
17710SOL    HW155124   8.663   8.330   0.711  1.5190 -1.5239 -2.8997
17710SOL    HW255125   8.597   8.398   0.593  0.5780  2.4022 -0.2878
17711SOL     OW55126   0.726   3.660   4.780 -0.0579  0.3978  0.1153
17711SOL    HW155127   0.672   3.672   4.702  0.0401 -0.7947 -0.1665
17711SOL    HW255128   0.813   3.691   4.754  0.3031 -1.1914 -0.7259
17712SOL     OW55129   0.329   1.713   5.270 -0.2985  0.1409 -0.0965
17712SOL    HW155130   0.280   1.761   5.336 -1.9017  0.1642 -1.2604
17712SOL    HW255131   0.389   1.778   5.233  1.3679 -0.1073  1.9513
17713SOL     OW55132   5.031   1.538   1.280 -0.2146 -0.1106 -0.5286
17713SOL    HW155133   4.949   1.496   1.308 -0.2527  0.1648 -0.2092
17713SOL    HW255134   5.016   1.561   1.189  0.2244 -1.7990 -1.0618
17714SOL     OW55135   2.038   4.555   2.603  0.3934 -0.2328 -0.1480
17714SOL    HW155136   2.003   4.498   2.672 -0.2567 -0.3437 -0.5600
17714SOL    HW255137   2.045   4.499   2.526 -0.5465  0.2955 -0.6455
17715SOL     OW55138   7.511   5.317   6.924  0.1013  0.3330  0.1289
17715SOL    HW155139   7.579   5.374   6.887 -0.1827  2.0350  2.0090
17715SOL    HW255140   7.491   5.357   7.009 -3.3439 -0.0261 -0.3798
17716SOL     OW55141   0.240   6.756   5.867 -0.0389  0.1609 -0.1360
17716SOL    HW155142   0.182   6.808   5.921 -0.3439  0.2518 -0.5468
17716SOL    HW255143   0.328   6.771   5.903 -0.2783 -0.0663  0.5540
17717SOL     OW55144   7.084   0.841   2.458  0.1949  0.2181 -0.3775
17717SOL    HW155145   7.094   0.905   2.529 -1.0698 -0.2588  0.2718
17717SOL    HW255146   7.039   0.767   2.499 -0.8333  0.0465 -1.7501
17718SOL     OW55147   1.743   6.432   7.788  0.3918 -0.2202 -0.3184
17718SOL    HW155148   1.762   6.518   7.749  0.8428 -0.4165 -0.5364
17718SOL    HW255149   1.707   6.381   7.716  1.9384 -0.8280 -0.6863
17719SOL     OW55150   3.802   2.075   2.171  0.0338 -0.5564 -0.2827
17719SOL    HW155151   3.718   2.085   2.217  0.2455  0.9835 -0.1990
17719SOL    HW255152   3.825   2.164   2.144  2.1303 -0.7998  0.5641
17720SOL     OW55153   6.172   8.561   0.341  0.7147 -0.3794 -0.2424
17720SOL    HW155154   6.195   8.489   0.282 -2.9344 -2.5071  0.5882
17720SOL    HW255155   6.104   8.610   0.294 -2.3362 -2.1670  1.9034
17721SOL     OW55156   2.456   8.097   6.898  0.2887 -0.1811  0.2622
17721SOL    HW155157   2.533   8.151   6.910  1.8344 -2.0767 -0.5536
17721SOL    HW255158   2.490   8.012   6.871 -2.0631 -1.2864  0.4927
17722SOL     OW55159   1.139   1.821   4.670 -0.1833  0.1000  0.1387
17722SOL    HW155160   1.217   1.857   4.627  0.1724 -1.9191 -0.9882
17722SOL    HW255161   1.114   1.889   4.733  1.2196  1.7201 -0.9495
17723SOL     OW55162   8.794   8.380   1.084 -0.1377 -0.2467  0.3595
17723SOL    HW155163   8.814   8.459   1.034  2.7447 -1.5520 -0.7104
17723SOL    HW255164   8.749   8.323   1.022 -1.3624  0.1044  0.8718
17724SOL     OW55165   7.031   6.148   7.807 -0.1091  0.3128 -0.2592
17724SOL    HW155166   7.039   6.219   7.743 -0.4060  1.0317  0.4786
17724SOL    HW255167   7.106   6.160   7.865 -0.4402  0.3396  0.1674
17725SOL     OW55168   0.388   3.810   7.606 -0.1442  0.1824  0.0168
17725SOL    HW155169   0.347   3.893   7.630 -0.7772  0.0709 -0.6334
17725SOL    HW255170   0.422   3.825   7.517  0.5510  0.0283  0.2525
17726SOL     OW55171   7.219   4.675   3.404  0.4105 -0.1507  0.0072
17726SOL    HW155172   7.213   4.604   3.340  0.6958  1.8527 -2.3827
17726SOL    HW255173   7.158   4.650   3.473  0.6877 -2.8086 -0.5945
17727SOL     OW55174   3.141   8.370   1.669 -0.7374  0.3690  0.1196
17727SOL    HW155175   3.228   8.346   1.637 -0.2785 -0.2248  1.7191
17727SOL    HW255176   3.122   8.454   1.626  0.3790  0.2427 -0.6569
17728SOL     OW55177   6.786   2.970   3.642  0.1470  0.6011  0.6939
17728SOL    HW155178   6.704   3.008   3.610 -0.5356 -0.7699  0.7664
17728SOL    HW255179   6.845   2.974   3.566 -0.3389  0.5694  0.3120
17729SOL     OW55180   7.363   5.907   7.853 -0.3034 -0.1275  0.3705
17729SOL    HW155181   7.386   5.819   7.823 -0.6111 -1.2004  2.9892
17729SOL    HW255182   7.374   5.904   7.948 -0.7746  2.5531  0.6041
17730SOL     OW55183   0.779   0.420   5.668  0.6487  0.4668  0.1546
17730SOL    HW155184   0.808   0.501   5.626  0.3414  0.6502  0.2956
17730SOL    HW255185   0.761   0.360   5.596  1.5551  0.2861  0.0619
17731SOL     OW55186   4.771   7.369   3.236  0.8975 -0.0865 -0.1552
17731SOL    HW155187   4.708   7.403   3.172 -2.0129 -1.5211  1.7298
17731SOL    HW255188   4.828   7.443   3.255 -0.3876  1.4079 -1.7627
17732SOL     OW55189   4.417   0.038   0.340 -0.2816 -0.0119  0.0513
17732SOL    HW155190   4.345   0.056   0.280  0.2693 -2.2377 -1.3725
17732SOL    HW255191   4.447   0.125   0.368 -0.3835  1.1742 -3.0939
17733SOL     OW55192   1.147   3.315   1.180 -0.7304  0.6815 -0.2734
17733SOL    HW155193   1.182   3.227   1.192 -0.6098  0.8553  0.7201
17733SOL    HW255194   1.056   3.300   1.151 -1.0083  0.2240  0.8016
17734SOL     OW55195   0.275   5.610   6.767 -0.1153  0.2098  0.7036
17734SOL    HW155196   0.203   5.662   6.804 -0.1075  0.9441 -0.2738
17734SOL    HW255197   0.353   5.639   6.816 -0.1040  1.1754  0.1341
17735SOL     OW55198   2.673   3.896   8.291 -0.6125 -0.1173  0.2258
17735SOL    HW155199   2.643   3.952   8.219  2.1589 -1.4408 -2.1540
17735SOL    HW255200   2.663   3.807   8.258  2.5090 -0.7148  0.6358
17736SOL     OW55201   4.202   5.351   6.085  0.4750  0.3795 -0.1146
17736SOL    HW155202   4.223   5.426   6.029  0.7755  2.2122  2.2817
17736SOL    HW255203   4.219   5.382   6.174  1.1583 -2.7575  0.9674
17737SOL     OW55204   1.757   2.641   8.262 -0.6769 -0.3240 -0.2204
17737SOL    HW155205   1.757   2.696   8.183  0.2038 -0.1469 -0.1158
17737SOL    HW255206   1.753   2.552   8.229  1.6385 -0.3577 -0.6040
17738SOL     OW55207   6.370   4.952   7.319 -0.0907 -0.2778  0.3396
17738SOL    HW155208   6.348   4.981   7.407 -0.6600 -2.6494  1.0705
17738SOL    HW255209   6.366   4.856   7.324  0.5096 -0.5011 -2.1048
17739SOL     OW55210   0.733   5.831   5.511  0.5718 -0.2161  0.2481
17739SOL    HW155211   0.646   5.792   5.521  0.7047 -0.7265 -0.5164
17739SOL    HW255212   0.719   5.925   5.524 -0.0617 -0.3184  0.3293
17740SOL     OW55213   5.076   4.649   4.567  0.0318 -0.5347 -0.5950
17740SOL    HW155214   5.067   4.693   4.651  0.9444 -1.5713  0.0776
17740SOL    HW255215   5.059   4.556   4.587 -0.8692 -0.6392 -1.7742
17741SOL     OW55216   7.703   6.746   6.757 -0.1195 -0.0765 -0.1620
17741SOL    HW155217   7.717   6.711   6.845 -2.1559  0.2386  0.3391
17741SOL    HW255218   7.706   6.670   6.700  2.1188 -0.1753  0.0260
17742SOL     OW55219   7.532   4.991   1.027 -0.3738 -0.3971 -0.4036
17742SOL    HW155220   7.592   5.005   0.954  0.5122  0.0628  0.3947
17742SOL    HW255221   7.587   4.992   1.105 -1.3320 -0.6249  0.3041
17743SOL     OW55222   7.706   7.558   3.711 -0.4462  0.1738  0.0704
17743SOL    HW155223   7.645   7.563   3.637 -2.4823  1.4399  1.7240
17743SOL    HW255224   7.757   7.639   3.705  1.4992 -1.0947 -1.5748
17744SOL     OW55225   2.935   6.002   6.785 -0.5825 -0.2903  0.6213
17744SOL    HW155226   2.843   6.019   6.763 -0.3738 -0.2231 -0.2620
17744SOL    HW255227   2.946   6.039   6.873 -0.8011  1.9768 -0.2145
17745SOL     OW55228   3.238   6.739   3.231  0.2497 -0.4528  0.3950
17745SOL    HW155229   3.258   6.814   3.287 -2.6968  1.4445 -0.8400
17745SOL    HW255230   3.188   6.679   3.288 -0.5368  0.2773  0.5009
17746SOL     OW55231   3.993   1.302   2.510  0.0821  0.4186  0.0135
17746SOL    HW155232   3.985   1.225   2.566 -1.9184  0.8541  0.4018
17746SOL    HW255233   3.982   1.269   2.421  0.8778  0.0574  0.0382
17747SOL     OW55234   2.985   2.468   6.612 -0.0331 -0.3468 -0.1364
17747SOL    HW155235   3.036   2.387   6.603  2.7328  1.2149  0.4778
17747SOL    HW255236   2.930   2.470   6.534  0.9135 -2.1017 -0.9096
17748SOL     OW55237   5.660   7.295   4.264  0.0900  0.4693  0.4088
17748SOL    HW155238   5.670   7.203   4.289 -1.2303  0.1201 -0.2625
17748SOL    HW255239   5.565   7.310   4.265  0.1663  1.2998 -1.2910
17749SOL     OW55240   0.130   5.846   6.047  0.1720 -0.6277  0.5112
17749SOL    HW155241   0.042   5.870   6.075 -0.5401 -1.3928 -0.9210
17749SOL    HW255242   0.130   5.863   5.952  1.5910 -0.5935  0.4927
17750SOL     OW55243   7.402   6.429   8.571  0.0291 -0.0581  0.1359
17750SOL    HW155244   7.364   6.504   8.527  0.9702  1.1507  1.3028
17750SOL    HW255245   7.496   6.447   8.575  0.1333 -0.7348  1.4514
17751SOL     OW55246   8.679   0.560   7.899 -0.0833  0.2202 -0.4259
17751SOL    HW155247   8.657   0.560   7.993  0.0617  0.2931 -0.3911
17751SOL    HW255248   8.714   0.473   7.882 -1.2464 -0.2147 -0.6845
17752SOL     OW55249   7.249   0.678   2.817  0.3639  0.0890  0.2538
17752SOL    HW155250   7.210   0.733   2.885  0.9815 -1.2773  1.7871
17752SOL    HW255251   7.216   0.713   2.735 -1.5214  0.9401  1.3269
17753SOL     OW55252   8.485   2.143   0.834 -0.2900 -0.2274 -0.3317
17753SOL    HW155253   8.503   2.229   0.795  1.0200  0.9611  2.5892
17753SOL    HW255254   8.393   2.128   0.815 -0.8608  2.3715 -0.0895
17754SOL     OW55255   8.144   1.952   0.493  0.1513 -0.4232 -0.1886
17754SOL    HW155256   8.082   1.950   0.420  1.0416  2.0100 -1.1349
17754SOL    HW255257   8.223   1.990   0.455  0.7874  0.5019  1.9523
17755SOL     OW55258   4.804   0.860   5.303 -0.2900 -0.2374  0.5292
17755SOL    HW155259   4.807   0.913   5.223  0.2126 -1.8265 -0.5441
17755SOL    HW255260   4.885   0.810   5.302 -0.1438 -0.1077  2.2015
17756SOL     OW55261   0.829   6.219   2.097  0.5731  0.6057 -0.1853
17756SOL    HW155262   0.821   6.199   2.004  0.2241  0.1603 -0.0658
17756SOL    HW255263   0.855   6.135   2.137 -1.4115  0.2130  0.4025
17757SOL     OW55264   1.150   3.863   4.303 -0.1656 -0.2014 -0.3229
17757SOL    HW155265   1.200   3.918   4.364  0.4697 -1.3565  0.2342
17757SOL    HW255266   1.072   3.915   4.283 -0.2867  0.3042  1.3190
17758SOL     OW55267   2.092   0.972   2.375  0.3794 -0.0325 -0.1187
17758SOL    HW155268   2.000   0.998   2.367  0.1127 -0.7829  0.4395
17758SOL    HW255269   2.130   1.038   2.434  0.5473  1.0765 -1.4193
17759SOL     OW55270   5.669   3.449   5.352  0.3974  0.1305 -0.2948
17759SOL    HW155271   5.598   3.513   5.350  1.5626  1.4663 -0.6882
17759SOL    HW255272   5.633   3.372   5.309  0.1738  1.9375 -3.7042
17760SOL     OW55273   6.145   7.327   6.298 -0.0228 -0.2829  0.3414
17760SOL    HW155274   6.212   7.343   6.231  0.0258  0.4097  0.5427
17760SOL    HW255275   6.140   7.232   6.305  0.5102 -0.3494 -0.1061
17761SOL     OW55276   6.962   8.873   5.036 -0.1678  0.2049  0.0326
17761SOL    HW155277   7.047   8.873   5.081 -1.1290  0.6467  1.9394
17761SOL    HW255278   6.976   8.816   4.961  1.7372  0.0190  0.4543
17762SOL     OW55279   8.597   4.501   3.822  0.1554  0.2508  0.2199
17762SOL    HW155280   8.588   4.583   3.871 -1.4788 -0.5089  1.2995
17762SOL    HW255281   8.670   4.455   3.864 -0.0336  0.4226  0.7390
17763SOL     OW55282   3.987   4.960   8.881 -0.6289 -0.3690 -0.6249
17763SOL    HW155283   3.913   4.950   8.940  0.0768 -1.8242  0.0568
17763SOL    HW255284   3.948   4.971   8.794 -1.6408  0.2544 -0.1046
17764SOL     OW55285   4.641   5.053   8.376 -0.4233  0.2409 -0.2533
17764SOL    HW155286   4.567   5.063   8.436 -0.4787 -0.1163 -0.2616
17764SOL    HW255287   4.667   4.962   8.385  0.3306  0.4837  0.1119
17765SOL     OW55288   3.098   8.558   4.677 -0.4655 -0.2592  0.1983
17765SOL    HW155289   3.019   8.605   4.703  1.1761  3.0566 -0.2566
17765SOL    HW255290   3.092   8.553   4.582 -0.7732 -1.3081  0.2662
17766SOL     OW55291   1.726   5.868   5.624  0.0489  0.5396 -0.1971
17766SOL    HW155292   1.753   5.849   5.715  0.3564 -1.2425 -0.6137
17766SOL    HW255293   1.649   5.924   5.633 -0.4115 -0.2482  1.2030
17767SOL     OW55294   4.617   0.011   2.506  0.1582  0.2621  0.0442
17767SOL    HW155295   4.604   0.007   2.600 -0.4143 -0.2668 -0.0489
17767SOL    HW255296   4.561   0.083   2.477 -0.9093 -0.5952 -0.0794
17768SOL     OW55297   1.751   1.069   5.590 -0.1104 -0.1926 -0.2297
17768SOL    HW155298   1.750   0.999   5.524 -1.1669 -0.5597  0.1607
17768SOL    HW255299   1.788   1.028   5.668  1.2046  0.2609 -0.5862
17769SOL     OW55300   5.508   6.721   1.547 -0.3136  0.1256 -0.0638
17769SOL    HW155301   5.449   6.748   1.617 -0.7144 -1.1996  0.1429
17769SOL    HW255302   5.539   6.803   1.509 -0.8251  0.8628  1.0435
17770SOL     OW55303   1.814   6.311   6.947  0.2906 -0.0799 -0.0837
17770SOL    HW155304   1.832   6.341   6.858 -0.2647 -0.7463 -0.4305
17770SOL    HW255305   1.718   6.307   6.952  0.3375 -1.1707  0.1568
17771SOL     OW55306   5.080   0.175   7.894 -0.0061  0.0080 -0.2318
17771SOL    HW155307   5.000   0.164   7.944 -0.3978 -0.1373 -0.8763
17771SOL    HW255308   5.053   0.222   7.815  0.4907 -0.3075 -0.5964
17772SOL     OW55309   4.444   0.974   0.412 -0.1103 -0.1983 -0.5040
17772SOL    HW155310   4.448   0.882   0.438  1.7225 -0.4270 -1.4303
17772SOL    HW255311   4.507   0.982   0.341 -0.3088  1.7632 -0.5228
17773SOL     OW55312   4.729   5.678   6.570  0.7411  0.2441 -0.0403
17773SOL    HW155313   4.697   5.612   6.632  0.5537 -0.3042 -0.7144
17773SOL    HW255314   4.805   5.637   6.529  1.2896  0.8800  0.3196
17774SOL     OW55315   2.437   4.522   6.364  0.5137 -0.1125  0.4364
17774SOL    HW155316   2.511   4.560   6.318  2.0468 -1.8953  1.3205
17774SOL    HW255317   2.380   4.490   6.294  1.8543 -1.0337 -0.2786
17775SOL     OW55318   5.689   0.911   7.219 -0.0845 -0.2028 -0.5975
17775SOL    HW155319   5.672   0.925   7.312  0.3158 -1.2868 -0.3445
17775SOL    HW255320   5.678   0.817   7.207  1.7712 -0.3704 -1.2370
17776SOL     OW55321   6.746   0.926   3.559 -0.1628  0.2301  0.3947
17776SOL    HW155322   6.842   0.920   3.559 -0.0640  1.5437  0.6240
17776SOL    HW255323   6.722   0.921   3.652 -0.2488  0.6936  0.4005
17777SOL     OW55324   6.421   0.300   0.173 -0.1006 -0.1214  0.0288
17777SOL    HW155325   6.360   0.238   0.134  2.2421 -1.6810 -1.4108
17777SOL    HW255326   6.399   0.384   0.133 -2.8981 -0.0327  1.5001
17778SOL     OW55327   7.662   4.012   6.791  0.0493 -0.1481  0.8287
17778SOL    HW155328   7.584   3.957   6.783  0.0751  0.1219 -2.5783
17778SOL    HW255329   7.723   3.960   6.844 -1.5905 -1.3078  1.6694
17779SOL     OW55330   2.623   0.026   6.870 -0.0612  0.8298 -0.0578
17779SOL    HW155331   2.580  -0.040   6.925 -0.4698  0.8609 -0.3359
17779SOL    HW255332   2.685  -0.024   6.817 -0.3903  0.6597 -0.2891
17780SOL     OW55333   3.002   2.879   2.124  0.4971 -0.3664  0.4639
17780SOL    HW155334   2.962   2.965   2.111 -0.0339 -0.2907  2.2526
17780SOL    HW255335   3.089   2.887   2.086 -0.3689  0.1654 -1.5365
17781SOL     OW55336   2.088   6.784   5.647  0.2669  0.0877  0.2307
17781SOL    HW155337   2.066   6.745   5.563 -0.3355 -1.5807  1.1160
17781SOL    HW255338   2.012   6.838   5.669  0.7873  1.2219 -0.6567
17782SOL     OW55339   0.875   5.200   6.341  0.4427 -0.4689 -0.2220
17782SOL    HW155340   0.813   5.152   6.286 -3.1731  2.3900  0.8987
17782SOL    HW255341   0.862   5.164   6.429  0.3137  0.1611  0.0267
17783SOL     OW55342   6.887   6.219   0.930  0.2384  0.0513 -0.6589
17783SOL    HW155343   6.814   6.156   0.929  0.4372 -0.2852  1.8649
17783SOL    HW255344   6.845   6.303   0.911 -0.5435 -0.3681 -0.8582
17784SOL     OW55345   0.597   4.489   2.305  0.3878 -0.3482  0.0490
17784SOL    HW155346   0.651   4.564   2.281  1.4760 -1.3310 -0.7040
17784SOL    HW255347   0.554   4.463   2.223  0.0641 -0.5876  0.2931
17785SOL     OW55348   1.500   8.277   7.247  0.0320  0.4685 -0.5083
17785SOL    HW155349   1.551   8.296   7.168  1.3197  0.1274  0.2073
17785SOL    HW255350   1.540   8.198   7.283 -1.1385  0.0807 -0.0102
17786SOL     OW55351   4.851   6.745   6.433 -0.1295 -0.3766  0.3393
17786SOL    HW155352   4.914   6.674   6.422 -0.4176 -0.6789  0.6394
17786SOL    HW255353   4.903   6.818   6.465  0.2336 -0.3353 -0.3226
17787SOL     OW55354   6.388   5.963   1.680  0.6493  0.0857 -0.2434
17787SOL    HW155355   6.466   5.987   1.631  0.9467 -1.9386 -0.8876
17787SOL    HW255356   6.323   5.942   1.612  0.5867 -1.2909  0.1996
17788SOL     OW55357   5.470   5.633   0.326 -0.2790  0.0527 -0.0496
17788SOL    HW155358   5.566   5.631   0.329 -0.1561  2.2590 -0.9508
17788SOL    HW255359   5.445   5.687   0.401 -0.9049 -1.0749  0.5919
17789SOL     OW55360   5.567   4.770   6.374  0.5016  1.1101 -0.0003
17789SOL    HW155361   5.517   4.817   6.306  0.7262  2.2332  0.5788
17789SOL    HW255362   5.500   4.744   6.438  0.1604 -0.7590 -1.0603
17790SOL     OW55363   6.506   1.117   4.962 -0.6756  0.2076  0.2544
17790SOL    HW155364   6.586   1.090   5.008 -0.7139 -0.4849 -0.0738
17790SOL    HW255365   6.535   1.186   4.903 -0.1590 -0.5436 -0.3988
17791SOL     OW55366   1.556   6.041   0.050  0.1230 -0.4327 -0.2355
17791SOL    HW155367   1.633   5.985   0.065 -0.7079 -1.0116  2.2850
17791SOL    HW255368   1.592   6.127   0.028  1.4262 -1.3107 -1.7907
17792SOL     OW55369   8.766   1.425   1.787  0.3682 -0.5674 -0.7032
17792SOL    HW155370   8.676   1.452   1.766  0.9113  0.6580 -1.6011
17792SOL    HW255371   8.767   1.417   1.883 -0.0311  2.1494 -0.3876
17793SOL     OW55372   5.097   2.029   8.559  0.4499  0.3293 -0.1838
17793SOL    HW155373   5.067   2.102   8.505  1.0463 -0.0237 -1.0140
17793SOL    HW255374   5.099   2.065   8.648 -0.7015  0.8703 -0.3560
17794SOL     OW55375   4.575   2.260   6.219 -0.2021 -0.2177 -0.2347
17794SOL    HW155376   4.607   2.350   6.213 -0.7717  0.0273  0.2670
17794SOL    HW255377   4.625   2.221   6.291 -0.1777 -0.2050 -0.2446
17795SOL     OW55378   8.640   2.079   4.624  0.0477 -0.3748  0.1698
17795SOL    HW155379   8.697   2.018   4.576 -0.9049 -1.9412  0.9216
17795SOL    HW255380   8.551   2.057   4.595 -0.4418 -0.4850  1.6689
17796SOL     OW55381   0.101   4.676   5.954 -0.7824 -0.2898 -0.8488
17796SOL    HW155382   0.101   4.597   5.900  2.8297 -0.9830 -0.0794
17796SOL    HW255383   0.118   4.747   5.893  2.1676 -0.9433 -0.9374
17797SOL     OW55384   0.591   4.825   5.649  0.3337  0.3466 -0.2488
17797SOL    HW155385   0.657   4.758   5.666  1.6172  1.5568 -0.1879
17797SOL    HW255386   0.568   4.814   5.557 -1.4026 -1.7637  0.3575
17798SOL     OW55387   8.843   1.710   3.409  0.0238 -0.3070  0.0473
17798SOL    HW155388   8.920   1.652   3.408 -0.6852 -1.2720 -1.3812
17798SOL    HW255389   8.878   1.795   3.437  1.6709 -0.6658 -0.7660
17799SOL     OW55390   8.417   7.774   5.479  0.6113 -0.1669 -0.0282
17799SOL    HW155391   8.409   7.823   5.560  1.0028  0.9558 -0.6391
17799SOL    HW255392   8.510   7.783   5.454  0.7831 -1.5621  0.0447
17800SOL     OW55393   3.745   1.762   4.638 -0.2667  0.5758 -0.6658
17800SOL    HW155394   3.690   1.693   4.676  0.3366  0.3796 -0.1416
17800SOL    HW255395   3.798   1.717   4.572  0.2461  0.4992 -0.2078
17801SOL     OW55396   1.724   2.946   7.447  0.0535  0.0595 -0.3983
17801SOL    HW155397   1.711   2.852   7.430 -0.2862  0.3567 -1.9076
17801SOL    HW255398   1.771   2.948   7.530 -0.9800 -1.4067  0.2683
17802SOL     OW55399   1.734   3.811   8.668  0.0938 -0.8191  0.4180
17802SOL    HW155400   1.782   3.741   8.625 -0.8967 -1.7887  0.8635
17802SOL    HW255401   1.667   3.767   8.720  0.0046  0.4075  1.4051
17803SOL     OW55402   3.648   6.439   2.232 -0.0527 -0.7523 -0.1772
17803SOL    HW155403   3.681   6.525   2.208 -2.2804 -0.5919 -3.2147
17803SOL    HW255404   3.576   6.457   2.293  0.5357 -0.6460  0.5128
17804SOL     OW55405   2.207   3.665   1.993 -0.0870 -0.0394  0.4457
17804SOL    HW155406   2.233   3.681   1.903 -0.5950 -0.0764  0.2854
17804SOL    HW255407   2.280   3.697   2.046 -0.0228  0.4906  0.0405
17805SOL     OW55408   4.802   6.912   5.631  0.3810  0.1777  0.0369
17805SOL    HW155409   4.750   6.991   5.621 -2.3383 -1.0350  3.0563
17805SOL    HW255410   4.752   6.844   5.586  0.6297 -0.5705  0.8699
17806SOL     OW55411   1.007   6.099   6.902 -0.0348 -0.0348 -0.1310
17806SOL    HW155412   0.950   6.136   6.970  0.6822 -0.5224  0.7514
17806SOL    HW255413   1.024   6.173   6.843 -0.3491  0.5040  0.4365
17807SOL     OW55414   7.724   1.524   5.332  0.5370  0.3050 -0.1443
17807SOL    HW155415   7.716   1.430   5.350  0.3678  0.5535  1.1485
17807SOL    HW255416   7.648   1.563   5.375  0.0604  0.9523 -1.5162
17808SOL     OW55417   8.815   8.399   4.514  0.1105 -0.8721 -0.2601
17808SOL    HW155418   8.884   8.462   4.537 -2.3430  1.2614  1.9395
17808SOL    HW255419   8.799   8.415   4.421  2.5002 -1.4383 -0.8357
17809SOL     OW55420   6.552   1.277   7.714  0.0801  0.0330  0.3163
17809SOL    HW155421   6.604   1.259   7.792  1.7163 -2.1557 -1.1982
17809SOL    HW255422   6.605   1.338   7.663 -0.4026  0.4320  0.2745
17810SOL     OW55423   5.051   6.761   7.475 -0.3204  0.5112  0.7842
17810SOL    HW155424   5.113   6.788   7.407 -0.2958 -1.0812  0.1399
17810SOL    HW255425   4.968   6.800   7.448  0.6705  4.7887  2.9303
17811SOL     OW55426   6.488   1.350   5.227 -0.2171  0.1013  0.0056
17811SOL    HW155427   6.509   1.263   5.260 -0.9168 -0.3674 -0.7486
17811SOL    HW255428   6.425   1.334   5.156 -1.0341  1.2767  0.4503
17812SOL     OW55429   6.281   5.103   6.023 -0.3628  0.0332  1.1818
17812SOL    HW155430   6.325   5.110   6.108  0.4655  1.0986  0.6951
17812SOL    HW255431   6.271   5.194   5.994  3.0643 -0.2711 -1.6863
17813SOL     OW55432   0.478   1.980   3.154  0.3158 -0.7427  0.0549
17813SOL    HW155433   0.391   1.948   3.132  0.3090  0.3196 -1.6289
17813SOL    HW255434   0.516   2.007   3.071  2.0584 -0.6573  0.8254
17814SOL     OW55435   2.396   3.000   0.605  0.6545  0.5238 -0.6290
17814SOL    HW155436   2.427   2.910   0.614  1.0541  0.4208 -2.6323
17814SOL    HW255437   2.472   3.054   0.626  1.2128  0.3272 -2.0615
17815SOL     OW55438   6.810   7.532   7.097 -0.2502 -0.6707  0.4442
17815SOL    HW155439   6.803   7.524   7.002  1.1532  0.7287  0.1752
17815SOL    HW255440   6.903   7.520   7.115 -0.0228  1.7807  1.2861
17816SOL     OW55441   5.175   8.647   3.533  0.0808  0.2016  0.8175
17816SOL    HW155442   5.165   8.571   3.476 -1.5109  0.2152  1.0523
17816SOL    HW255443   5.167   8.723   3.475  0.4202  0.2112  0.7779
17817SOL     OW55444   2.666   7.676   7.016  0.4835 -0.1145 -0.2133
17817SOL    HW155445   2.599   7.612   7.039 -0.3528  1.0873  0.7923
17817SOL    HW255446   2.715   7.689   7.098  0.4650  0.7456 -0.3373
17818SOL     OW55447   4.573   0.174   0.627  0.2675  0.1487 -0.5188
17818SOL    HW155448   4.501   0.229   0.595  0.3618  1.8805  1.9056
17818SOL    HW255449   4.552   0.086   0.597 -3.1505  0.4972  0.4577
17819SOL     OW55450   0.471   8.523   0.456  0.2660 -0.0302 -0.5985
17819SOL    HW155451   0.388   8.551   0.418 -1.4131 -0.4438  2.4571
17819SOL    HW255452   0.463   8.428   0.465  1.1943 -0.1133 -0.4675
17820SOL     OW55453   1.117   5.486   3.057  0.8370  0.6432 -0.1429
17820SOL    HW155454   1.076   5.406   3.089 -0.7772  1.0467 -1.0860
17820SOL    HW255455   1.050   5.527   3.002  0.9977  3.4662  1.5911
17821SOL     OW55456   6.973   6.567   5.418 -0.2787  0.1004 -0.9631
17821SOL    HW155457   6.993   6.659   5.433  1.3774  0.2892 -3.6670
17821SOL    HW255458   7.022   6.520   5.486  1.1627  1.1235 -1.2440
17822SOL     OW55459   5.005   3.304   7.050  0.0304  0.0213  0.7279
17822SOL    HW155460   5.090   3.261   7.056 -0.1869 -0.5753 -0.2326
17822SOL    HW255461   5.019   3.392   7.086  1.0215 -0.0927  0.6386
17823SOL     OW55462   2.951   4.295   6.130  0.0341  0.4813  0.3096
17823SOL    HW155463   3.028   4.242   6.110 -0.9467 -0.9570  0.1350
17823SOL    HW255464   2.968   4.331   6.217  1.4943  1.3586 -0.3098
17824SOL     OW55465   5.653   8.207   7.042  0.6618 -0.0090 -0.5634
17824SOL    HW155466   5.650   8.243   6.953  0.6939  1.1487 -0.1102
17824SOL    HW255467   5.563   8.212   7.073  0.9798  1.4917  0.1862
17825SOL     OW55468   0.260   0.048   6.484  0.0505  0.2374  0.0632
17825SOL    HW155469   0.227  -0.041   6.472  0.8616 -0.0390 -0.1783
17825SOL    HW255470   0.190   0.094   6.530  0.5470 -1.1743  2.4065
17826SOL     OW55471   2.523   5.714   1.845 -0.0824 -0.1568 -0.7634
17826SOL    HW155472   2.616   5.738   1.844  0.0000 -0.4572 -0.3215
17826SOL    HW255473   2.503   5.701   1.938 -1.0130  1.6416 -0.6710
17827SOL     OW55474   6.754   3.753   7.145 -0.8249  0.8351 -0.1114
17827SOL    HW155475   6.777   3.821   7.082 -1.8746  0.6212 -0.7545
17827SOL    HW255476   6.772   3.671   7.100 -0.0341  0.6728  0.4787
17828SOL     OW55477   7.714   6.033   1.319 -0.3108  0.0764  0.3166
17828SOL    HW155478   7.752   6.110   1.363  0.7579 -0.0162 -0.4115
17828SOL    HW255479   7.759   6.029   1.235 -1.8242 -0.1640 -0.5172
17829SOL     OW55480   2.355   7.366   2.042  0.2998  0.2710  0.1388
17829SOL    HW155481   2.417   7.320   2.098  1.3064 -0.2112 -1.2980
17829SOL    HW255482   2.385   7.457   2.042 -0.5335  0.5656  1.4452
17830SOL     OW55483   7.887   5.309   3.702  0.1006 -0.5389 -0.2078
17830SOL    HW155484   7.936   5.262   3.634  1.9394  1.1270 -0.1205
17830SOL    HW255485   7.852   5.386   3.657  1.7445  0.8358  0.7414
17831SOL     OW55486   7.697   5.791   7.491 -0.6555 -0.0418 -0.3114
17831SOL    HW155487   7.717   5.866   7.436 -0.9032 -0.4260 -0.9285
17831SOL    HW255488   7.615   5.815   7.534  0.2915  0.8896  1.0629
17832SOL     OW55489   7.780   6.499   2.966  0.4926 -0.1035 -0.7238
17832SOL    HW155490   7.700   6.500   3.018  0.5961 -0.9650 -0.5267
17832SOL    HW255491   7.774   6.577   2.910  0.5871  1.0907  0.8576
17833SOL     OW55492   4.667   4.721   2.060 -0.6812  0.7243  0.0322
17833SOL    HW155493   4.625   4.665   1.995  1.2203  0.7546 -1.2922
17833SOL    HW255494   4.714   4.660   2.117 -0.7098  0.8275  0.1670
17834SOL     OW55495   3.697   2.115   4.808  0.1879  0.1658 -0.0516
17834SOL    HW155496   3.767   2.169   4.773 -1.6409  1.3802 -2.0977
17834SOL    HW255497   3.629   2.177   4.834 -1.5402 -1.0101 -1.4578
17835SOL     OW55498   7.629   8.475   4.744 -0.3904  0.1857 -0.3662
17835SOL    HW155499   7.631   8.410   4.814 -1.6794 -1.0172 -1.3994
17835SOL    HW255500   7.721   8.481   4.715 -0.2329 -1.1634 -0.2255
17836SOL     OW55501   1.449   0.060   5.030 -0.4301  0.2302 -0.0950
17836SOL    HW155502   1.365   0.054   5.077  0.2151 -0.1051  1.0436
17836SOL    HW255503   1.425   0.047   4.938 -1.4758 -1.1274  0.3297
17837SOL     OW55504   3.487   1.792   2.167 -0.3192  0.0353 -0.0194
17837SOL    HW155505   3.442   1.851   2.228 -0.3438  0.0698 -0.0711
17837SOL    HW255506   3.429   1.786   2.092  1.5201  3.3687 -1.9580
17838SOL     OW55507   6.267   7.402   7.548 -0.2541 -0.3238  0.4449
17838SOL    HW155508   6.220   7.342   7.606 -0.9643  0.9916  1.2727
17838SOL    HW255509   6.359   7.388   7.570  0.0998 -4.2591 -2.4531
17839SOL     OW55510   5.433   1.729   3.690 -0.0836 -0.0403  0.2057
17839SOL    HW155511   5.387   1.812   3.677  1.5351  0.8946  0.0765
17839SOL    HW255512   5.386   1.666   3.636 -2.0029  0.5227  1.1534
17840SOL     OW55513   6.297   8.170   2.711 -0.2918 -0.1786 -0.0673
17840SOL    HW155514   6.273   8.180   2.803  0.2385  2.5873 -0.1640
17840SOL    HW255515   6.220   8.200   2.663  0.4938  1.2384 -0.4661
17841SOL     OW55516   6.343   4.019   1.293  0.4122 -0.6580 -0.0180
17841SOL    HW155517   6.306   4.105   1.314 -0.7884 -0.0481 -3.8028
17841SOL    HW255518   6.436   4.036   1.283  0.2337  0.1664 -0.4406
17842SOL     OW55519   6.977   7.452   5.175  0.4497  0.7461  0.1840
17842SOL    HW155520   6.896   7.503   5.180 -0.0919 -0.1269  0.4971
17842SOL    HW255521   7.035   7.493   5.240  0.4132  1.6280 -0.3300
17843SOL     OW55522   4.051   6.206   1.840 -0.4125  0.8399 -0.0373
17843SOL    HW155523   4.144   6.214   1.823 -0.2920  1.9373  0.9731
17843SOL    HW255524   4.018   6.296   1.835 -1.0501  0.7201  1.4693
17844SOL     OW55525   7.423   0.298   1.483 -0.1110 -0.9070 -0.4653
17844SOL    HW155526   7.424   0.394   1.487  0.3012 -0.9427  0.8733
17844SOL    HW255527   7.514   0.274   1.468 -0.0576 -1.1009  0.1305
17845SOL     OW55528   1.092   2.737   8.758 -0.1476 -0.0423 -0.0250
17845SOL    HW155529   1.006   2.696   8.772  0.3710 -0.8785  0.7830
17845SOL    HW255530   1.087   2.772   8.669 -1.0785 -0.7031 -0.2524
17846SOL     OW55531   6.119   5.603   1.167  0.8016 -0.1066  0.2262
17846SOL    HW155532   6.040   5.631   1.213  0.9662 -0.7908  0.9455
17846SOL    HW255533   6.135   5.514   1.199  0.1434 -1.1547 -2.1832
17847SOL     OW55534   5.631   2.301   7.129  0.2280  0.3786 -0.0877
17847SOL    HW155535   5.724   2.285   7.113 -0.0178 -0.6649 -0.5927
17847SOL    HW255536   5.604   2.359   7.058  0.2247 -0.3216 -0.6694
17848SOL     OW55537   8.489   1.029   7.206  0.2985  0.0595 -0.4602
17848SOL    HW155538   8.436   1.082   7.147  0.4178  1.6116  0.7539
17848SOL    HW255539   8.569   1.011   7.157  0.0394  0.5898 -1.0800
17849SOL     OW55540   6.877   7.719   2.839  0.1572  0.3250 -0.0406
17849SOL    HW155541   6.819   7.755   2.906 -1.0172  0.2665 -0.9940
17849SOL    HW255542   6.895   7.792   2.780 -0.2209 -0.0476 -0.6174
17850SOL     OW55543   4.513   4.055   3.147  0.4620 -0.2591  0.5655
17850SOL    HW155544   4.424   4.078   3.170  0.0863 -0.9098 -0.1794
17850SOL    HW255545   4.562   4.061   3.230  0.3842  2.8776  0.4811
17851SOL     OW55546   2.739   6.627   6.044  0.0065  0.5367  0.2851
17851SOL    HW155547   2.670   6.688   6.073 -0.5809 -0.3900  0.8982
17851SOL    HW255548   2.814   6.647   6.099  0.5068  2.0477 -0.8704
17852SOL     OW55549   4.739   1.908   2.438 -0.0764  0.1808 -0.4309
17852SOL    HW155550   4.778   1.881   2.354  0.4789  0.4664 -0.2653
17852SOL    HW255551   4.675   1.976   2.414  2.3019  2.5892 -0.3633
17853SOL     OW55552   0.939   3.712   7.887 -1.0042  0.1175 -0.2150
17853SOL    HW155553   0.847   3.700   7.862 -1.4198  2.7381 -0.2109
17853SOL    HW255554   0.935   3.759   7.971  0.2782  1.5953 -0.9268
17854SOL     OW55555   3.568   4.894   0.279  0.5331 -0.6730 -0.5481
17854SOL    HW155556   3.539   4.928   0.364  1.7194  0.0446 -0.3897
17854SOL    HW255557   3.489   4.888   0.226 -0.2794 -1.4966  0.7290
17855SOL     OW55558   6.921   6.360   3.803 -0.2992  0.1335  0.1843
17855SOL    HW155559   6.953   6.365   3.893  0.4109  0.1129 -0.0608
17855SOL    HW255560   6.977   6.295   3.761 -0.4350  0.3530 -0.3509
17856SOL     OW55561   4.960   1.164   2.262  0.9211  0.3210  0.0753
17856SOL    HW155562   4.910   1.096   2.307 -0.4324  0.6333 -0.9071
17856SOL    HW255563   5.025   1.116   2.211  0.8206 -0.1595  0.3954
17857SOL     OW55564   3.587   6.370   3.771  0.5639 -0.5115  0.0328
17857SOL    HW155565   3.636   6.427   3.829 -1.1796  0.2541  0.7989
17857SOL    HW255566   3.653   6.335   3.710  1.6976  2.2581 -0.4547
17858SOL     OW55567   5.896   1.200   7.673  0.0620  0.0688 -0.0967
17858SOL    HW155568   5.870   1.235   7.588  1.2016  0.5337 -0.2728
17858SOL    HW255569   5.970   1.142   7.654  2.4833  2.6219  0.8222
17859SOL     OW55570   8.508   1.507   1.898 -0.0940  0.2186  0.3364
17859SOL    HW155571   8.519   1.416   1.927 -0.9646  0.5899  1.9419
17859SOL    HW255572   8.490   1.556   1.978 -0.7963  1.6244 -0.6351
17860SOL     OW55573   3.724   2.115   1.242  0.0789 -0.8826  0.1702
17860SOL    HW155574   3.702   2.049   1.176  0.4934 -0.4372 -0.4289
17860SOL    HW255575   3.775   2.068   1.307  2.8195 -0.6788 -1.6318
17861SOL     OW55576   1.671   2.856   7.144  0.3939 -0.6688 -1.0426
17861SOL    HW155577   1.659   2.938   7.193 -0.6300 -1.8370  0.8018
17861SOL    HW255578   1.644   2.877   7.055  2.3504  1.5748 -1.2124
17862SOL     OW55579   8.747   2.071   2.173 -0.4628  0.8935 -0.1841
17862SOL    HW155580   8.653   2.090   2.173 -0.7480 -0.4170  0.2647
17862SOL    HW255581   8.756   1.996   2.115  0.0456 -0.0720  1.0845
17863SOL     OW55582   1.197   1.976   5.445 -0.1900 -0.6228 -0.4834
17863SOL    HW155583   1.148   2.027   5.510  1.9398 -0.1596  0.8709
17863SOL    HW255584   1.257   2.039   5.406  1.7273 -1.7948  0.4218
17864SOL     OW55585   0.704   8.304   6.251 -0.0693 -0.0410  0.0756
17864SOL    HW155586   0.621   8.345   6.279 -0.1510  0.0013 -0.2175
17864SOL    HW255587   0.683   8.211   6.242  0.1913 -0.2000  1.0189
17865SOL     OW55588   6.449   7.127   2.759 -0.0226 -0.3022  0.4718
17865SOL    HW155589   6.356   7.118   2.740 -0.2263  0.8112  0.8613
17865SOL    HW255590   6.460   7.085   2.844  0.5227 -3.5333 -1.0398
17866SOL     OW55591   0.009   4.679   3.782 -0.2791  0.2331 -0.2339
17866SOL    HW155592  -0.051   4.617   3.825  0.5709  0.7639  1.8373
17866SOL    HW255593   0.042   4.733   3.853  3.0256 -0.2966 -1.2080
17867SOL     OW55594   5.629   1.531   7.491  0.7120  0.0475 -0.0971
17867SOL    HW155595   5.551   1.570   7.453  1.0023 -0.3810 -1.1628
17867SOL    HW255596   5.687   1.516   7.417  1.3540 -0.6647  0.5339
17868SOL     OW55597   8.149   1.183   2.440 -0.4987  0.0395  0.3661
17868SOL    HW155598   8.086   1.136   2.495 -0.5111 -0.7096 -0.2686
17868SOL    HW255599   8.190   1.246   2.499 -2.9550  1.6808  0.4493
17869SOL     OW55600   3.839   6.777   7.735  0.2926  0.3626 -0.1085
17869SOL    HW155601   3.758   6.733   7.707 -0.3674  1.0716  0.6392
17869SOL    HW255602   3.843   6.762   7.829  2.3103 -1.6918 -0.4281
17870SOL     OW55603   2.588   8.585   8.289  0.1297  0.2035  0.1464
17870SOL    HW155604   2.646   8.611   8.360  2.1519  1.6331 -1.8947
17870SOL    HW255605   2.642   8.532   8.231 -1.0062  0.3466 -1.1101
17871SOL     OW55606   6.581   0.066   8.689 -0.8314 -0.3155  0.7550
17871SOL    HW155607   6.521   0.019   8.630 -0.8763  1.9563 -1.1574
17871SOL    HW255608   6.542   0.056   8.776 -1.9459 -2.0001  0.1068
17872SOL     OW55609   6.424   7.030   0.471  0.4877  0.1481  0.3172
17872SOL    HW155610   6.339   6.987   0.480  0.6596 -0.2543  0.0307
17872SOL    HW255611   6.419   7.106   0.529  0.3872 -0.5558  1.2496
17873SOL     OW55612   8.819   0.971   5.366 -0.2835 -0.0355  0.0783
17873SOL    HW155613   8.758   1.037   5.333  0.1979  0.9322  1.0528
17873SOL    HW255614   8.769   0.925   5.434 -0.0407  0.5361  0.6479
17874SOL     OW55615   7.904   3.200   2.887  0.0521 -0.2482 -0.5047
17874SOL    HW155616   7.957   3.139   2.939  0.7462  0.2795 -0.5769
17874SOL    HW255617   7.968   3.263   2.851 -0.7292  1.0164  0.2457
17875SOL     OW55618   5.655   4.628   4.778  0.3070 -0.2181  0.6320
17875SOL    HW155619   5.595   4.698   4.753 -0.9044 -0.5646  2.4350
17875SOL    HW255620   5.739   4.672   4.790 -0.5422  1.0543  2.2206
17876SOL     OW55621   5.472   7.356   0.333 -0.7089 -0.0212  0.0923
17876SOL    HW155622   5.486   7.434   0.387  1.1673 -0.3021  0.1004
17876SOL    HW255623   5.560   7.320   0.320 -1.3284 -1.1033 -1.4596
17877SOL     OW55624   6.206   3.597   0.006  0.2023  0.4222 -0.3813
17877SOL    HW155625   6.157   3.538   0.064 -0.1283  0.6747 -0.4007
17877SOL    HW255626   6.193   3.561  -0.082 -0.0114  0.5290 -0.3946
17878SOL     OW55627   5.220   6.534   2.954 -0.1918 -0.0839  0.1911
17878SOL    HW155628   5.230   6.460   3.014 -0.2279 -1.4968 -1.4665
17878SOL    HW255629   5.154   6.589   2.995 -1.5874 -1.9425  0.5883
17879SOL     OW55630   3.018   3.892   2.171  0.1797  0.0095 -0.1180
17879SOL    HW155631   2.946   3.873   2.111  1.0358 -0.5992 -0.9955
17879SOL    HW255632   2.977   3.903   2.256 -1.1213  1.2969 -0.8825
17880SOL     OW55633   4.723   2.146   5.516  0.2217 -0.2283 -0.0520
17880SOL    HW155634   4.667   2.070   5.505  1.1672 -0.8201 -0.9844
17880SOL    HW255635   4.792   2.117   5.576  0.5746 -0.1127 -0.3941
17881SOL     OW55636   4.231   0.796   2.859 -0.4030  0.6735 -0.1048
17881SOL    HW155637   4.164   0.855   2.894 -0.8061  0.3887 -0.3911
17881SOL    HW255638   4.189   0.709   2.862 -0.2216  0.5657 -0.7396
17882SOL     OW55639   2.268   8.164   1.596  0.1252 -0.5818  0.5365
17882SOL    HW155640   2.290   8.248   1.555  2.7424 -0.9002  1.1187
17882SOL    HW255641   2.329   8.156   1.668 -0.2898 -2.8611  0.7052
17883SOL     OW55642   0.315   7.768   3.745 -0.1640  0.0013 -0.4154
17883SOL    HW155643   0.308   7.859   3.716  1.0939  0.3038  0.1477
17883SOL    HW255644   0.236   7.726   3.712 -1.4858  1.6338  0.5228
17884SOL     OW55645   6.407   3.632   0.688 -0.1262 -0.7112 -0.2509
17884SOL    HW155646   6.387   3.671   0.602 -1.8227 -1.2899 -0.1674
17884SOL    HW255647   6.413   3.538   0.671  0.1642 -0.7655  0.1554
17885SOL     OW55648   1.696   4.196   4.476 -0.1915 -0.0967  0.2181
17885SOL    HW155649   1.750   4.126   4.437  0.8913  1.5125 -1.3134
17885SOL    HW255650   1.633   4.218   4.408 -0.1149  0.8402  0.4394
17886SOL     OW55651   5.631   3.885   4.774 -0.3325  0.7375 -0.3725
17886SOL    HW155652   5.667   3.818   4.717 -0.6677  1.6083 -1.6662
17886SOL    HW255653   5.604   3.838   4.853 -0.3962 -0.6019 -1.1634
17887SOL     OW55654   7.612   2.407   8.769  0.1311  0.0511 -0.1936
17887SOL    HW155655   7.586   2.400   8.861 -3.4035  0.1305 -1.0140
17887SOL    HW255656   7.580   2.493   8.742  1.0956  0.0228 -1.5107
17888SOL     OW55657   3.665   2.144   7.687  0.1220  0.2481  0.3861
17888SOL    HW155658   3.615   2.210   7.735  0.8299  0.1969  1.2328
17888SOL    HW255659   3.658   2.065   7.740  1.3812  0.3407  0.7277
17889SOL     OW55660   3.844   2.625   6.103  0.0805  0.0979  0.1918
17889SOL    HW155661   3.905   2.565   6.061  1.2423 -0.3839  2.3684
17889SOL    HW255662   3.758   2.590   6.084  0.6990 -1.7125  0.5620
17890SOL     OW55663   4.825   8.674   6.794 -0.1966 -0.1843  0.3632
17890SOL    HW155664   4.819   8.739   6.724 -1.4263 -0.9649 -0.3138
17890SOL    HW255665   4.737   8.674   6.834 -0.2010 -1.3521  0.3946
17891SOL     OW55666   7.842   3.270   3.501 -0.1499 -0.0183 -0.4899
17891SOL    HW155667   7.824   3.236   3.413 -0.2574  2.0734 -1.3356
17891SOL    HW255668   7.769   3.329   3.519 -1.0615 -1.6978  1.7914
17892SOL     OW55669   6.380   7.463   7.297  0.3430  0.4268  0.2241
17892SOL    HW155670   6.360   7.461   7.391 -0.4244  0.5063  0.0711
17892SOL    HW255671   6.469   7.428   7.291  0.3045  0.1726  0.9604
17893SOL     OW55672   2.024   4.059   7.352 -0.1920  0.1169  0.2083
17893SOL    HW155673   2.071   4.142   7.364 -1.7058  0.8826  1.0365
17893SOL    HW255674   1.949   4.082   7.296 -1.1222 -0.4983  1.1758
17894SOL     OW55675   3.177   7.410   5.884  0.2321  0.3319  0.5829
17894SOL    HW155676   3.239   7.446   5.820 -1.3121  3.3911  0.6034
17894SOL    HW255677   3.092   7.415   5.840 -0.1994 -3.6086  0.6080
17895SOL     OW55678   6.292   1.892   3.224  0.1958  0.2901 -0.0877
17895SOL    HW155679   6.227   1.830   3.191  0.4116 -0.8487  1.4938
17895SOL    HW255680   6.309   1.951   3.151 -2.3168  0.3899 -0.6806
17896SOL     OW55681   4.362   8.225   0.193  0.2479 -0.0034  0.3495
17896SOL    HW155682   4.414   8.176   0.256  0.2209 -0.4990 -0.0097
17896SOL    HW255683   4.297   8.162   0.162  0.8270 -0.0341 -0.8410
17897SOL     OW55684   2.066   3.991   7.765 -0.0681  0.0948  0.0557
17897SOL    HW155685   2.073   3.899   7.788  0.0127  0.5732  2.0945
17897SOL    HW255686   1.980   4.017   7.798  0.2374  0.9353  0.2169
17898SOL     OW55687   8.883   4.985   2.188 -0.2001 -0.1847  0.1845
17898SOL    HW155688   8.840   5.038   2.120 -2.2277 -2.7672 -0.7125
17898SOL    HW255689   8.947   4.933   2.141  0.6437  0.2893  0.7933
17899SOL     OW55690   5.718   5.155   6.013 -0.0286  0.0108  0.2751
17899SOL    HW155691   5.725   5.250   6.001 -0.6939  0.4468  2.6410
17899SOL    HW255692   5.645   5.144   6.074 -0.2346 -2.0747 -0.2660
17900SOL     OW55693   1.792   5.348   7.373  0.1877  0.3439 -0.3994
17900SOL    HW155694   1.872   5.321   7.328  1.9565 -0.8531  3.0389
17900SOL    HW255695   1.732   5.274   7.364  0.5498  0.0807 -0.6674
17901SOL     OW55696   0.879   3.287   3.490  0.1357  0.5000  0.1712
17901SOL    HW155697   0.898   3.205   3.535  2.2655  0.4003 -0.8299
17901SOL    HW255698   0.868   3.263   3.399 -0.5299  1.1797  0.0615
17902SOL     OW55699   2.838   2.904   1.267  0.5751  0.3786 -0.1871
17902SOL    HW155700   2.750   2.927   1.238  0.6872  1.8623  0.5701
17902SOL    HW255701   2.824   2.848   1.344  0.3000  0.0116 -0.5016
17903SOL     OW55702   1.711   6.314   2.149  0.1979  0.4661  0.1898
17903SOL    HW155703   1.675   6.347   2.066  0.6448  0.0621 -0.1699
17903SOL    HW255704   1.676   6.374   2.216 -0.5888  0.4847 -0.2266
17904SOL     OW55705   5.297   8.021   4.296  0.3368  0.1424 -0.5827
17904SOL    HW155706   5.214   7.980   4.273  1.1237 -1.5483 -0.5403
17904SOL    HW255707   5.355   7.948   4.319  1.0638  1.3809  1.9995
17905SOL     OW55708   2.169   1.001   5.979 -0.6557 -0.0033 -0.7147
17905SOL    HW155709   2.129   0.917   5.957  0.9134 -0.5614 -1.6816
17905SOL    HW255710   2.251   0.977   6.023 -0.5436  1.0277 -0.3526
17906SOL     OW55711   8.105   3.993   7.478  0.3974 -0.2695  0.4225
17906SOL    HW155712   8.190   4.015   7.440  0.6574 -0.5775  0.8047
17906SOL    HW255713   8.050   3.972   7.404 -0.1304  2.4287 -0.0571
17907SOL     OW55714   1.188   3.491   5.536  0.1074 -0.5917  0.5389
17907SOL    HW155715   1.127   3.561   5.559  0.8324  0.6820 -1.1659
17907SOL    HW255716   1.260   3.501   5.599  0.9271  1.2532 -0.6051
17908SOL     OW55717   7.141   6.667   8.448 -0.0981 -0.4464  0.5870
17908SOL    HW155718   7.122   6.656   8.541 -0.0903  0.9471  0.7727
17908SOL    HW255719   7.062   6.634   8.404  0.5510 -2.6918  0.9715
17909SOL     OW55720   7.370   4.533   2.889 -0.4112  0.0198  0.1919
17909SOL    HW155721   7.332   4.475   2.823  0.1392  0.2688 -0.3506
17909SOL    HW255722   7.352   4.621   2.857 -2.1484  0.1979  1.5223
17910SOL     OW55723   5.243   8.361   6.380 -0.3119 -0.0278 -0.3977
17910SOL    HW155724   5.180   8.430   6.360  0.9556  1.6312  1.0132
17910SOL    HW255725   5.237   8.350   6.475 -0.7651 -2.1848 -0.6403
17911SOL     OW55726   4.402   6.744   8.407  0.4808 -0.1317 -0.4899
17911SOL    HW155727   4.365   6.791   8.331 -1.3355 -1.0785 -0.2624
17911SOL    HW255728   4.484   6.707   8.375 -0.6405 -1.2042 -2.2840
17912SOL     OW55729   8.862   2.009   1.729  0.0651 -0.0398 -0.2776
17912SOL    HW155730   8.931   1.974   1.785 -0.1732 -1.1924 -0.6562
17912SOL    HW255731   8.781   1.993   1.777 -0.2168 -1.7395 -1.2107
17913SOL     OW55732   2.920   8.228   8.210 -0.2107 -0.5391  0.0960
17913SOL    HW155733   2.888   8.146   8.174  0.1863  0.3977 -2.5755
17913SOL    HW255734   3.008   8.238   8.174 -1.1645  2.2345 -1.8330
17914SOL     OW55735   0.212   7.163   2.170  0.6548  0.2150  0.1840
17914SOL    HW155736   0.248   7.083   2.210 -0.7045 -0.4149  0.1824
17914SOL    HW255737   0.290   7.211   2.141  1.4992 -1.6286 -0.8279
17915SOL     OW55738   8.738   4.727   7.467 -0.0218  0.2681 -0.0868
17915SOL    HW155739   8.764   4.727   7.559  2.2393  4.3661 -0.5082
17915SOL    HW255740   8.643   4.744   7.470  0.1957  1.4631  1.5068
17916SOL     OW55741   0.696   2.669   2.362 -0.7536 -0.1386 -0.3780
17916SOL    HW155742   0.677   2.717   2.281  0.2459 -0.2399 -0.6869
17916SOL    HW255743   0.706   2.578   2.334 -0.5453 -0.1978 -0.1172
17917SOL     OW55744   1.711   4.454   6.873  0.4968 -0.1695  0.1356
17917SOL    HW155745   1.640   4.497   6.825 -1.2018 -2.8116  0.1145
17917SOL    HW255746   1.727   4.373   6.825  3.6475  0.3668  0.1098
17918SOL     OW55747   1.602   2.663   3.923 -0.7252 -0.0773 -0.5617
17918SOL    HW155748   1.553   2.702   3.995  0.0990 -0.7802  0.4125
17918SOL    HW255749   1.691   2.654   3.957 -0.3395 -0.5097 -1.6449
17919SOL     OW55750   7.208   5.035   2.564 -0.6779 -0.0461 -0.2366
17919SOL    HW155751   7.273   5.106   2.566 -0.8928  0.1510 -0.1887
17919SOL    HW255752   7.260   4.956   2.554 -0.5078  0.2236 -1.7613
17920SOL     OW55753   6.332   7.781   1.840 -0.4518 -0.2745  0.0251
17920SOL    HW155754   6.268   7.762   1.771  0.0882  0.4173 -0.6844
17920SOL    HW255755   6.416   7.757   1.801  0.0655  1.7535 -0.2399
17921SOL     OW55756   0.202   6.819   6.730  0.0497  0.3695 -0.1018
17921SOL    HW155757   0.233   6.783   6.813  0.3469 -0.7818 -0.6917
17921SOL    HW255758   0.259   6.780   6.663 -1.1183  0.0965 -0.9858
17922SOL     OW55759   2.850   7.298   2.688  0.0752 -0.2805  0.2628
17922SOL    HW155760   2.939   7.275   2.661  0.3743 -0.5364  1.4321
17922SOL    HW255761   2.859   7.328   2.778 -0.8292  1.0297 -0.0487
17923SOL     OW55762   6.345   7.682   7.713 -0.3124  0.1372  0.2805
17923SOL    HW155763   6.271   7.663   7.656 -1.5358  0.1155  1.8057
17923SOL    HW255764   6.403   7.606   7.704 -0.3721  0.2307 -1.0521
17924SOL     OW55765   0.282   8.757   5.521  0.2376  0.0195  0.2844
17924SOL    HW155766   0.199   8.710   5.527  0.9396 -1.1759  0.8886
17924SOL    HW255767   0.349   8.689   5.528  1.2759  1.0556  0.7639
17925SOL     OW55768   8.764   4.067   2.411  0.4458  0.3452  0.3307
17925SOL    HW155769   8.799   4.112   2.488 -0.2401  2.8314 -0.7056
17925SOL    HW255770   8.676   4.104   2.400  0.8396  0.7298 -2.0899
17926SOL     OW55771   1.617   0.053   6.592  0.3219 -0.1657 -0.2926
17926SOL    HW155772   1.632   0.063   6.686 -0.0705 -3.3381  0.2147
17926SOL    HW255773   1.525   0.025   6.585 -0.1625  1.6196 -1.8132
17927SOL     OW55774   6.518   4.180   0.760 -0.0954 -0.4404  0.8161
17927SOL    HW155775   6.553   4.183   0.849 -1.1752 -0.6197  1.2562
17927SOL    HW255776   6.550   4.096   0.725 -0.6352 -0.9299  1.4604
17928SOL     OW55777   1.852   4.307   0.266  0.1738  0.2813  0.2696
17928SOL    HW155778   1.851   4.281   0.358 -0.7152 -0.6310  0.0111
17928SOL    HW255779   1.831   4.401   0.267 -1.3777 -0.0467  0.9010
17929SOL     OW55780   8.025   5.128   2.773  0.1482 -0.6252  0.8847
17929SOL    HW155781   8.099   5.174   2.813 -0.0119 -0.8692  1.4728
17929SOL    HW255782   7.955   5.136   2.838 -1.0480  1.5067 -0.5801
17930SOL     OW55783   8.460   2.795   5.524  0.7889  0.1414  0.4324
17930SOL    HW155784   8.503   2.880   5.514  0.4171  0.1057 -2.6028
17930SOL    HW255785   8.520   2.732   5.483  0.6168 -0.9190  1.7463
17931SOL     OW55786   6.900   3.852   1.930  0.0115  0.4676  0.1579
17931SOL    HW155787   6.830   3.787   1.920  0.6816 -0.3981  0.8933
17931SOL    HW255788   6.862   3.919   1.987 -1.0978  1.3867 -1.5545
17932SOL     OW55789   8.018   7.779   0.133  0.5774 -0.2432 -0.0444
17932SOL    HW155790   8.101   7.811   0.099 -0.1985  0.5223 -1.3299
17932SOL    HW255791   8.037   7.694   0.170  1.9468 -0.0299 -0.2338
17933SOL     OW55792   5.428   3.283   0.959  0.0650 -0.3347  0.5233
17933SOL    HW155793   5.344   3.261   0.919 -0.3243 -0.6210  1.4699
17933SOL    HW255794   5.453   3.366   0.918 -0.8282 -0.0919  0.4463
17934SOL     OW55795   1.974   2.911   1.386  0.1201 -0.3596 -0.2346
17934SOL    HW155796   1.897   2.965   1.367  0.8817  0.4787 -1.0208
17934SOL    HW255797   2.016   2.953   1.460  1.2805  0.7765 -1.4870
17935SOL     OW55798   3.017   1.155   8.727 -0.1324 -0.2082 -0.0894
17935SOL    HW155799   2.931   1.187   8.702 -0.9965 -1.5649  1.0034
17935SOL    HW255800   3.071   1.165   8.648 -1.9689 -1.7791 -1.6181
17936SOL     OW55801   5.472   3.565   0.316 -0.2926 -0.2480 -0.2475
17936SOL    HW155802   5.501   3.655   0.331 -0.0454 -0.4985  0.8416
17936SOL    HW255803   5.543   3.525   0.265 -0.6928  0.3388 -1.2974
17937SOL     OW55804   6.313   2.947   6.723 -0.0555 -0.2920 -0.2516
17937SOL    HW155805   6.329   2.854   6.707 -0.9666 -0.5432  0.2184
17937SOL    HW255806   6.279   2.981   6.640  0.2143 -0.3947 -0.4020
17938SOL     OW55807   0.737   0.057   0.934  0.4049 -0.2561 -0.3309
17938SOL    HW155808   0.795   0.023   0.866 -0.2665  2.4377 -2.4321
17938SOL    HW255809   0.792   0.113   0.987  0.3864 -0.2572 -0.3106
17939SOL     OW55810   6.669   5.717   0.664 -0.4099  0.0099  0.0493
17939SOL    HW155811   6.727   5.676   0.600 -2.3545 -1.6753 -0.7727
17939SOL    HW255812   6.605   5.766   0.611  0.7160  2.6539  0.9567
17940SOL     OW55813   4.918   5.569   5.945  0.1509 -0.7038 -0.0403
17940SOL    HW155814   4.848   5.514   5.911 -0.8050 -1.0739  2.3191
17940SOL    HW255815   4.984   5.507   5.978  0.1917 -0.4220  0.4262
17941SOL     OW55816   6.638   2.842   7.634 -0.7236  0.4072  0.3843
17941SOL    HW155817   6.706   2.904   7.605 -0.2678  0.5437  1.6786
17941SOL    HW255818   6.560   2.867   7.585 -0.2509  1.2860  0.0577
17942SOL     OW55819   4.025   0.064   0.913  0.0225  0.1276  0.5721
17942SOL    HW155820   4.064  -0.023   0.905  0.7709  0.6322 -2.5752
17942SOL    HW255821   4.081   0.110   0.975  1.3459 -0.7851  0.0961
17943SOL     OW55822   4.704   6.852   4.326 -0.2087  0.2088 -0.1083
17943SOL    HW155823   4.652   6.917   4.374  0.0347  0.0861  0.3309
17943SOL    HW255824   4.639   6.797   4.283 -0.4337  1.9177 -2.1371
17944SOL     OW55825   8.075   4.282   2.405 -0.0564  0.4598  0.0719
17944SOL    HW155826   8.032   4.329   2.476  1.1215 -0.3791  1.4116
17944SOL    HW255827   8.030   4.197   2.401 -0.2216  0.5617 -0.2943
17945SOL     OW55828   1.666   2.180   8.192  0.2093  0.2804  0.0270
17945SOL    HW155829   1.660   2.179   8.287 -0.9176  0.0954 -0.0293
17945SOL    HW255830   1.619   2.102   8.164  1.2239 -0.1111 -0.6662
17946SOL     OW55831   4.819   8.282   0.088 -0.8035  0.1411  0.1511
17946SOL    HW155832   4.779   8.202   0.054 -0.9318 -0.3678  1.4254
17946SOL    HW255833   4.781   8.353   0.036 -0.2464 -0.6605 -1.3952
17947SOL     OW55834   1.904   7.785   0.744 -0.2824 -0.0313 -0.0217
17947SOL    HW155835   1.859   7.708   0.711 -1.6021  0.3172  0.9072
17947SOL    HW255836   1.946   7.757   0.825 -0.5073  0.1439  0.1577
17948SOL     OW55837   1.948   2.999   5.484 -0.3228 -0.0823  0.2917
17948SOL    HW155838   1.926   3.039   5.399 -1.6123 -1.5592 -0.1014
17948SOL    HW255839   2.032   2.955   5.468  1.2637  2.5154  0.7975
17949SOL     OW55840   2.576   5.294   1.339 -0.5719 -0.0890 -0.2288
17949SOL    HW155841   2.653   5.318   1.389  0.4087  2.0231 -2.5560
17949SOL    HW255842   2.604   5.219   1.285 -0.6267 -0.2840  0.0119
17950SOL     OW55843   1.350   5.472   5.581  0.0359 -0.4854 -0.4851
17950SOL    HW155844   1.343   5.535   5.653  0.1297  0.6245 -1.4214
17950SOL    HW255845   1.366   5.526   5.504  1.9238 -1.7638 -1.0692
17951SOL     OW55846   1.886   8.161   4.736  0.4032 -0.2729  0.4487
17951SOL    HW155847   1.839   8.082   4.709 -0.6123  0.4130  0.1517
17951SOL    HW255848   1.949   8.178   4.666  1.3586 -1.3857  1.0038
17952SOL     OW55849   5.964   2.556   2.054  0.1638 -0.1649  0.5017
17952SOL    HW155850   6.059   2.552   2.040  0.0583 -1.9013  0.0030
17952SOL    HW255851   5.930   2.478   2.009 -1.6516  1.0602 -0.3600
17953SOL     OW55852   5.140   5.924   6.539 -0.0345 -0.3316  0.5128
17953SOL    HW155853   5.071   5.934   6.474  0.2535 -1.3351  0.0306
17953SOL    HW255854   5.098   5.878   6.612  0.1489 -1.0936  0.1493
17954SOL     OW55855   6.031   7.441   8.452  0.3242 -0.5665  0.0649
17954SOL    HW155856   5.985   7.374   8.503 -0.1050  0.3826  0.9356
17954SOL    HW255857   6.058   7.506   8.516  2.3862 -0.7920 -0.5058
17955SOL     OW55858   7.294   8.380   0.769 -0.6847 -0.7613 -0.5967
17955SOL    HW155859   7.202   8.393   0.746 -0.5966 -0.5647 -0.8404
17955SOL    HW255860   7.315   8.293   0.736 -0.1837  0.0379 -2.4993
17956SOL     OW55861   8.139   4.547   8.375  1.0012 -0.0769 -0.1500
17956SOL    HW155862   8.134   4.638   8.347  1.2608 -0.1678 -0.4908
17956SOL    HW255863   8.219   4.513   8.335 -0.1431 -1.0423 -1.7243
17957SOL     OW55864   6.634   8.305   7.933  0.0875  0.2312  0.0273
17957SOL    HW155865   6.705   8.257   7.976  1.1461  0.0404 -1.7970
17957SOL    HW255866   6.555   8.256   7.955  0.6852 -0.3378  1.0077
17958SOL     OW55867   5.976   0.226   6.550 -0.3405  0.1588  0.4498
17958SOL    HW155868   6.041   0.294   6.564  1.0170 -1.2202  1.0359
17958SOL    HW255869   6.016   0.166   6.486 -1.4182 -0.2253  0.1051
17959SOL     OW55870   2.176   1.863   0.011  0.4943  0.0761  0.5810
17959SOL    HW155871   2.185   1.869   0.106  0.1811  0.7104  0.5711
17959SOL    HW255872   2.265   1.843  -0.020  0.8238  0.9893  0.9177
17960SOL     OW55873   6.601   8.010   8.839  0.0779 -0.5389  0.2155
17960SOL    HW155874   6.534   8.078   8.851  1.1963  0.7231 -0.3592
17960SOL    HW255875   6.561   7.949   8.777 -0.3798  0.4594 -0.5150
17961SOL     OW55876   5.465   1.853   0.192 -0.4573 -0.1691  0.2839
17961SOL    HW155877   5.423   1.871   0.276 -0.7001  0.4603  0.0327
17961SOL    HW255878   5.526   1.926   0.179  1.1084 -1.3196  0.8763
17962SOL     OW55879   4.512   0.810   4.888  0.3356 -0.1313  0.2115
17962SOL    HW155880   4.470   0.894   4.873  0.4172 -0.0301  0.5335
17962SOL    HW255881   4.487   0.787   4.978  0.6418 -0.2568  0.2663
17963SOL     OW55882   3.404   0.003   3.478  0.4642  0.1745  0.2445
17963SOL    HW155883   3.315   0.038   3.483  0.1804 -0.4307 -0.4531
17963SOL    HW255884   3.428  -0.016   3.569  0.1017  0.8671  0.4924
17964SOL     OW55885   4.983   3.579   7.425  0.2354  0.1537 -0.1617
17964SOL    HW155886   4.976   3.578   7.330 -0.6379 -0.4217 -0.1038
17964SOL    HW255887   4.897   3.611   7.455  0.4665  0.2389  0.4378
17965SOL     OW55888   5.076   0.267   7.039  0.5058 -0.2186 -0.6634
17965SOL    HW155889   5.088   0.359   7.064  0.1010  0.3861 -2.5597
17965SOL    HW255890   4.996   0.240   7.084 -1.0999  1.3067 -2.4587
17966SOL     OW55891   0.022   5.947   2.004 -0.1351  0.1870  0.0551
17966SOL    HW155892  -0.014   5.988   2.082 -0.6976  1.0627 -0.6532
17966SOL    HW255893  -0.045   5.959   1.937 -0.9721 -3.1127  0.1382
17967SOL     OW55894   0.604   3.265   6.762 -0.2199 -0.0069  0.4460
17967SOL    HW155895   0.563   3.182   6.740  0.7792  0.1087 -2.2584
17967SOL    HW255896   0.692   3.259   6.727 -0.6453  2.7904 -1.4924
17968SOL     OW55897   1.787   1.126   7.771 -0.4685  0.1459  1.1136
17968SOL    HW155898   1.836   1.045   7.776  0.7103  0.8945  2.3641
17968SOL    HW255899   1.721   1.119   7.840 -1.0432 -0.1605  0.5429
17969SOL     OW55900   2.547   0.503   3.146 -0.7132 -0.7048  0.1629
17969SOL    HW155901   2.491   0.429   3.125  1.5933 -2.3323 -0.6390
17969SOL    HW255902   2.607   0.471   3.214 -0.8195  1.0155  1.1272
17970SOL     OW55903   1.756   6.830   5.172  0.7548  0.1880 -0.6375
17970SOL    HW155904   1.687   6.852   5.110 -0.0210  0.2381  0.2172
17970SOL    HW255905   1.736   6.740   5.199  0.3279  0.5989  0.4820
17971SOL     OW55906   1.546   7.502   5.207  0.2236  0.3460 -0.2201
17971SOL    HW155907   1.463   7.458   5.225  1.1420 -2.2203 -1.7882
17971SOL    HW255908   1.596   7.492   5.288  0.1130 -0.8506 -0.2829
17972SOL     OW55909   4.232   6.843   6.736  0.2438  0.6157  0.2381
17972SOL    HW155910   4.170   6.842   6.810 -1.2843 -0.6437 -0.9931
17972SOL    HW255911   4.294   6.773   6.757 -1.1642 -0.8945 -0.3880
17973SOL     OW55912   6.737   7.572   5.240  0.1318  0.2677  0.3077
17973SOL    HW155913   6.662   7.623   5.272  0.7746  1.6690 -0.3157
17973SOL    HW255914   6.729   7.488   5.285 -0.8050  1.0171  1.6397
17974SOL     OW55915   5.081   5.386   7.211 -0.0148 -0.4157  0.7801
17974SOL    HW155916   5.021   5.314   7.227  1.1634 -0.9968  3.0366
17974SOL    HW255917   5.049   5.457   7.266  0.4872 -0.2185  0.8281
17975SOL     OW55918   6.033   5.217   8.411 -0.1055 -0.5867 -0.3310
17975SOL    HW155919   6.127   5.197   8.407  0.0436  0.2097 -3.4820
17975SOL    HW255920   5.991   5.137   8.380 -0.2348 -0.0112 -1.7073
17976SOL     OW55921   4.084   3.968   6.120  0.1838 -0.5035  0.6546
17976SOL    HW155922   4.174   3.949   6.095  0.9105  1.8982  1.1796
17976SOL    HW255923   4.034   3.893   6.089  1.7859 -0.2567 -2.9744
17977SOL     OW55924   0.351   6.593   4.887  0.0886 -0.2255 -0.4127
17977SOL    HW155925   0.441   6.563   4.900  0.4589 -0.4512 -3.0997
17977SOL    HW255926   0.325   6.557   4.803 -2.7206 -0.5469  0.4776
17978SOL     OW55927   4.789   8.487   1.141 -0.3990  0.6349 -0.6537
17978SOL    HW155928   4.721   8.553   1.126 -1.3260  0.1495  1.1361
17978SOL    HW255929   4.744   8.417   1.187  1.5255  0.7846  1.6426
17979SOL     OW55930   2.266   6.931   1.554 -0.4124 -0.1742 -0.4087
17979SOL    HW155931   2.172   6.942   1.570 -0.2002 -0.9459  1.6452
17979SOL    HW255932   2.272   6.912   1.461 -2.1570  1.1818 -0.8576
17980SOL     OW55933   2.026   8.596   7.098  0.0972 -0.0881  0.1589
17980SOL    HW155934   2.004   8.676   7.144  0.4440  0.7618 -1.0999
17980SOL    HW255935   1.942   8.554   7.081 -0.2979  1.1417 -1.1170
17981SOL     OW55936   0.754   1.331   1.328  0.0814  0.2516  0.1647
17981SOL    HW155937   0.703   1.409   1.304  1.1803  0.6584 -0.9302
17981SOL    HW255938   0.845   1.358   1.321  0.4780 -0.7299  1.2048
17982SOL     OW55939   2.664   4.116   4.849 -0.0820  0.5615  0.7269
17982SOL    HW155940   2.746   4.070   4.829 -0.8222 -1.0578  1.1689
17982SOL    HW255941   2.682   4.208   4.831  1.1884 -0.0053 -1.2215
17983SOL     OW55942   6.516   4.227   1.912 -0.0814  0.1374  0.1175
17983SOL    HW155943   6.504   4.320   1.931  0.6053  0.6163 -1.6114
17983SOL    HW255944   6.439   4.185   1.950 -0.1724  1.3375  1.3351
17984SOL     OW55945   0.739   2.198   4.033  0.0925  0.3126 -0.2825
17984SOL    HW155946   0.815   2.156   4.072 -0.2421  0.1777  0.2360
17984SOL    HW255947   0.751   2.291   4.050 -0.3064  0.2082  0.6082
17985SOL     OW55948   1.800   1.573   1.904 -0.2731  0.3371 -0.0055
17985SOL    HW155949   1.749   1.524   1.969 -0.1825  0.0693 -0.1365
17985SOL    HW255950   1.891   1.559   1.929 -0.2831  1.4037  0.6520
17986SOL     OW55951   8.169   6.734   3.523  0.1013  0.3382  0.3560
17986SOL    HW155952   8.156   6.642   3.504  0.1656  0.4366 -0.1612
17986SOL    HW255953   8.110   6.752   3.596 -1.5426  0.4161 -0.9412
17987SOL     OW55954   3.065   4.730   3.264 -0.2169 -0.1329 -0.1964
17987SOL    HW155955   3.079   4.808   3.209  0.0584 -0.0125  0.0392
17987SOL    HW255956   3.102   4.755   3.349 -0.1078 -0.5308 -0.1281
17988SOL     OW55957   6.262   1.780   8.083  0.2124  0.2734 -0.1654
17988SOL    HW155958   6.320   1.822   8.146  1.7589 -1.8782 -0.0278
17988SOL    HW255959   6.287   1.816   7.998  1.8548 -0.6470 -0.1105
17989SOL     OW55960   0.359   0.983   1.793  0.1619  0.6273  0.2626
17989SOL    HW155961   0.287   0.933   1.829  1.0119 -0.6871  0.2038
17989SOL    HW255962   0.375   1.052   1.857 -0.9432  0.7649  0.4119
17990SOL     OW55963   3.187   4.088   6.238 -0.1098 -0.1420  0.1050
17990SOL    HW155964   3.253   4.021   6.221 -0.4476  0.0025 -1.9321
17990SOL    HW255965   3.234   4.171   6.228  0.1492 -0.0194  1.9700
17991SOL     OW55966   5.377   8.325   6.139 -0.3371  0.4358  0.2502
17991SOL    HW155967   5.332   8.336   6.223  0.9595 -0.0505  1.0323
17991SOL    HW255968   5.434   8.402   6.132 -0.7519  0.6914 -0.3956
17992SOL     OW55969   2.482   2.399   3.820  0.4200 -0.3527  0.3816
17992SOL    HW155970   2.415   2.384   3.753 -0.7023  1.1662  1.1162
17992SOL    HW255971   2.471   2.326   3.882  0.5418 -0.9970 -0.3413
17993SOL     OW55972   3.103   7.986   1.524 -0.3919  0.0243 -0.0054
17993SOL    HW155973   3.021   8.030   1.500 -0.0004  0.6695 -0.1783
17993SOL    HW255974   3.171   8.034   1.477 -0.0930 -1.8203 -1.5897
17994SOL     OW55975   6.699   7.010   2.097  0.2775  0.5231  0.2386
17994SOL    HW155976   6.720   7.104   2.104 -0.3636  0.9357 -2.2976
17994SOL    HW255977   6.629   7.006   2.032 -0.2659 -1.6851  0.8912
17995SOL     OW55978   6.793   8.659   7.931 -0.1941  0.0293 -0.3877
17995SOL    HW155979   6.832   8.716   7.998 -1.7788 -1.3024  1.7969
17995SOL    HW255980   6.719   8.619   7.975  1.2843 -4.4144 -1.4615
17996SOL     OW55981   8.894   7.858   4.658 -0.0918 -0.3058  0.2520
17996SOL    HW155982   8.860   7.822   4.740  1.2908  0.4599  1.1848
17996SOL    HW255983   8.977   7.812   4.644  0.1228  0.2237 -0.2509
17997SOL     OW55984   3.684   8.405   8.836 -0.0763  0.0436  0.1059
17997SOL    HW155985   3.681   8.320   8.792  0.6272  0.8568 -1.6303
17997SOL    HW255986   3.667   8.468   8.766  0.4022  1.3796  1.1528
17998SOL     OW55987   0.626   5.479   6.917  0.1743  0.4912  0.0471
17998SOL    HW155988   0.710   5.452   6.879  0.1829 -0.3505  0.6506
17998SOL    HW255989   0.591   5.542   6.854 -0.2877 -1.6156 -1.9354
17999SOL     OW55990   6.825   6.373   6.976 -0.3704  0.3621 -0.0342
17999SOL    HW155991   6.873   6.455   6.959  0.0878 -0.4247 -3.1253
17999SOL    HW255992   6.886   6.321   7.028  2.3031 -0.4630 -3.5148
18000SOL     OW55993   7.029   2.544   1.497 -0.8352  0.3804  0.1016
18000SOL    HW155994   6.994   2.493   1.424  2.1910 -1.9897  0.0934
18000SOL    HW255995   7.048   2.480   1.565  1.7472  1.6393  0.7145
18001SOL     OW55996   8.109   3.388   5.539  0.0305  0.1529  0.3341
18001SOL    HW155997   8.084   3.471   5.578  0.4832  1.5108 -2.0921
18001SOL    HW255998   8.044   3.372   5.470  0.8263 -0.6835 -0.2683
18002SOL     OW55999   1.444   7.009   1.624 -0.2564  0.5135 -0.0003
18002SOL    HW156000   1.532   6.971   1.635  0.5460  1.6536 -2.0182
18002SOL    HW256001   1.429   7.058   1.705  0.8618  0.1222  0.4664
18003SOL     OW56002   8.851   5.453   6.165  0.4513 -0.0243 -0.4578
18003SOL    HW156003   8.837   5.423   6.076  0.9418  0.9478 -0.8713
18003SOL    HW256004   8.897   5.537   6.156 -1.6370  1.3277  0.6102
18004SOL     OW56005   3.569   1.250   3.107  0.3573  0.6187  0.5685
18004SOL    HW156006   3.527   1.301   3.177 -0.9999 -1.3621  1.2712
18004SOL    HW256007   3.515   1.171   3.099  2.6559 -0.9752 -0.1156
18005SOL     OW56008   2.037   7.912   4.647  0.5743 -0.1993  0.1834
18005SOL    HW156009   2.081   7.988   4.684  1.9158 -0.2755 -1.1704
18005SOL    HW256010   2.017   7.857   4.723  1.4847  0.5300  0.9807
18006SOL     OW56011   1.857   0.733   2.729  1.1125  0.7082 -0.1313
18006SOL    HW156012   1.805   0.800   2.685  0.4116  1.1486  1.3219
18006SOL    HW256013   1.947   0.748   2.698  0.7153  1.2446 -1.0797
18007SOL     OW56014   5.610   4.442   8.474 -0.2476 -0.3836 -0.0054
18007SOL    HW156015   5.653   4.508   8.527 -1.0005  0.8189 -0.8446
18007SOL    HW256016   5.663   4.363   8.485  1.0225  0.5240  0.5226
18008SOL     OW56017   2.950   3.109   1.396  0.2768 -0.0110 -0.0271
18008SOL    HW156018   2.873   3.164   1.379  0.0896 -0.4784 -0.7889
18008SOL    HW256019   2.933   3.030   1.344  1.8570  0.3913 -1.2185
18009SOL     OW56020   6.621   5.371   1.961 -0.2961  0.4803  0.5303
18009SOL    HW156021   6.570   5.292   1.977  0.6325 -0.1090  0.6779
18009SOL    HW256022   6.558   5.435   1.927 -0.8263 -0.7659 -0.9399
18010SOL     OW56023   4.823   0.303   2.398 -0.8475 -0.2747  0.4484
18010SOL    HW156024   4.743   0.251   2.387 -2.0667  1.1079  2.1727
18010SOL    HW256025   4.853   0.320   2.308 -1.5284 -2.1826 -0.2027
18011SOL     OW56026   4.915   7.775   4.847  0.0547  0.7644  0.0955
18011SOL    HW156027   4.895   7.869   4.851  1.9950  1.2270 -0.1043
18011SOL    HW256028   4.961   7.764   4.764 -1.0032 -0.5769 -0.3500
18012SOL     OW56029   4.569   6.040   0.735  0.4500 -0.2331  0.6968
18012SOL    HW156030   4.613   5.991   0.665  0.6106  1.0727 -0.1481
18012SOL    HW256031   4.476   6.034   0.713  0.4536 -0.3043  0.6993
18013SOL     OW56032   6.549   2.805   4.069  0.4977  0.6248  0.3702
18013SOL    HW156033   6.500   2.877   4.030 -0.5496 -0.8231 -1.0978
18013SOL    HW256034   6.484   2.758   4.121  0.8710 -0.0171  0.2572
18014SOL     OW56035   2.238   0.127   5.415  0.3483 -0.3483 -0.7862
18014SOL    HW156036   2.316   0.137   5.361  1.1662 -2.5239 -0.1052
18014SOL    HW256037   2.248   0.041   5.456 -0.0994  1.2022  2.9958
18015SOL     OW56038   8.150   7.832   3.362 -0.3075 -0.2833  0.0636
18015SOL    HW156039   8.199   7.860   3.285 -0.5454  2.8720  0.9183
18015SOL    HW256040   8.208   7.769   3.406  0.8497 -0.2933 -1.4229
18016SOL     OW56041   3.743   7.241   8.579 -0.0686 -0.1814  0.0551
18016SOL    HW156042   3.825   7.288   8.592 -0.9496  1.6337 -0.5082
18016SOL    HW256043   3.756   7.191   8.498  0.1236  1.0277 -0.6872
18017SOL     OW56044   6.098   0.329   0.495  0.2114 -0.7627  0.2802
18017SOL    HW156045   6.027   0.265   0.491 -0.6202  0.1435  0.2763
18017SOL    HW256046   6.096   0.362   0.585 -0.3275  0.2994 -0.0981
18018SOL     OW56047   0.533   1.331   4.200 -0.2266 -0.0236  0.0050
18018SOL    HW156048   0.502   1.246   4.230 -1.3336  0.1987 -0.4584
18018SOL    HW256049   0.560   1.376   4.280 -0.3278 -0.5395  0.3340
18019SOL     OW56050   2.378   2.740   7.644  0.0685  0.7236  0.1042
18019SOL    HW156051   2.420   2.825   7.637  2.1704 -0.2714 -0.0231
18019SOL    HW256052   2.372   2.724   7.739  2.2176 -0.1168  0.1544
18020SOL     OW56053   0.122   0.896   4.637 -0.9974  0.2645 -0.5105
18020SOL    HW156054   0.192   0.881   4.700 -2.9214  0.6925  1.8986
18020SOL    HW256055   0.058   0.827   4.656 -1.3705  0.0268 -2.4730
18021SOL     OW56056   3.395   5.906   0.783  0.4143  0.0919  0.2538
18021SOL    HW156057   3.453   5.961   0.730  0.7729  1.6054  2.1191
18021SOL    HW256058   3.418   5.927   0.873 -0.7902 -1.7406  1.0345
18022SOL     OW56059   2.671   6.971   0.457  0.6053 -0.4981  0.6570
18022SOL    HW156060   2.735   6.900   0.456  1.3412  0.1386  1.1784
18022SOL    HW256061   2.715   7.043   0.412  0.2658 -0.0487  1.0393
18023SOL     OW56062   1.840   2.749   5.746 -0.2762  0.0964  0.3678
18023SOL    HW156063   1.885   2.696   5.681  2.2716 -0.7302  2.6311
18023SOL    HW256064   1.845   2.838   5.712  3.8723  0.1828  0.7553
18024SOL     OW56065   5.525   0.806   8.142 -0.6962 -0.3162  0.0043
18024SOL    HW156066   5.551   0.885   8.094  1.2954 -0.9343 -0.0475
18024SOL    HW256067   5.432   0.794   8.121 -0.6642  1.1778 -1.1629
18025SOL     OW56068   5.889   3.141   5.931  0.5133 -0.1797 -0.1996
18025SOL    HW156069   5.857   3.228   5.906  1.4390  0.3595  0.4566
18025SOL    HW256070   5.900   3.095   5.848 -1.5989 -0.2834 -0.4870
18026SOL     OW56071   0.861   0.638   1.806 -0.2878 -0.4902 -0.2586
18026SOL    HW156072   0.866   0.663   1.714 -0.7353 -0.7077 -0.3412
18026SOL    HW256073   0.911   0.706   1.852 -0.4134 -0.1536 -0.6184
18027SOL     OW56074   8.156   1.127   0.694  0.6569 -0.0343 -0.6062
18027SOL    HW156075   8.094   1.126   0.767  1.8227  0.3636  0.4375
18027SOL    HW256076   8.103   1.109   0.617 -0.8339  0.7717  0.1746
18028SOL     OW56077   5.406   4.274   7.185 -0.0615  0.1815 -0.5686
18028SOL    HW156078   5.457   4.352   7.164 -0.2535  0.0507 -1.5389
18028SOL    HW256079   5.439   4.206   7.127 -1.0757 -0.0089 -0.9504
18029SOL     OW56080   6.305   6.113   0.473 -0.0109 -0.3520 -1.0070
18029SOL    HW156081   6.263   6.049   0.416  0.6866 -1.5764 -0.1956
18029SOL    HW256082   6.377   6.065   0.514 -1.3008 -0.0057  1.9954
18030SOL     OW56083   3.046   3.913   3.524 -0.4668 -0.1114  0.6736
18030SOL    HW156084   3.015   3.992   3.480  0.1961  0.4947  1.2468
18030SOL    HW256085   3.019   3.925   3.615  0.0144 -0.3407  0.8491
18031SOL     OW56086   8.870   6.968   4.249  0.3639  0.2366 -0.2529
18031SOL    HW156087   8.801   6.905   4.229 -1.3804  1.5442  1.1894
18031SOL    HW256088   8.897   6.946   4.338 -0.0267  1.2548  0.1382
18032SOL     OW56089   7.671   1.839   8.050  0.2796  0.3766 -0.0845
18032SOL    HW156090   7.733   1.778   8.009  0.8385 -0.2650  1.6374
18032SOL    HW256091   7.586   1.814   8.015  0.7644  0.0260 -1.0460
18033SOL     OW56092   5.561   8.137   6.500 -0.6718 -0.0226 -0.0439
18033SOL    HW156093   5.603   8.055   6.475 -2.1736 -0.7805 -0.1778
18033SOL    HW256094   5.569   8.193   6.423 -0.4620 -0.3763 -0.2821
18034SOL     OW56095   7.444   2.344   8.148 -0.5284  0.8048 -0.2806
18034SOL    HW156096   7.393   2.415   8.187 -3.0290 -1.7468  1.5454
18034SOL    HW256097   7.386   2.305   8.083  0.4585 -0.0332 -0.6934
18035SOL     OW56098   6.253   0.919   4.075 -0.7577  0.2787  0.3586
18035SOL    HW156099   6.291   0.835   4.052  0.9318  0.2387  2.8883
18035SOL    HW256100   6.317   0.984   4.045 -1.5839  0.6285 -0.7001
18036SOL     OW56101   0.470   7.289   1.605  0.1274  0.0390  0.4537
18036SOL    HW156102   0.474   7.245   1.520  1.1864 -0.5254  0.7714
18036SOL    HW256103   0.492   7.380   1.586  3.5640 -0.6513  0.4663
18037SOL     OW56104   5.015   6.581   6.963 -0.1530 -0.2912 -0.1688
18037SOL    HW156105   5.007   6.629   6.881  1.4866  1.2707  0.5282
18037SOL    HW256106   5.047   6.494   6.937 -0.4084 -0.0830 -1.2173
18038SOL     OW56107   5.981   3.784   7.110  0.7854 -0.2917  0.6805
18038SOL    HW156108   6.040   3.708   7.117  1.1233 -0.2830 -1.4796
18038SOL    HW256109   6.030   3.848   7.059 -0.6297  0.1762 -0.1650
18039SOL     OW56110   1.061   5.813   6.683  0.1723 -0.1813  0.4594
18039SOL    HW156111   1.141   5.807   6.630  2.0124 -1.0040  3.0880
18039SOL    HW256112   1.080   5.882   6.746 -2.3270  1.4505 -0.4574
18040SOL     OW56113   6.805   7.337   7.519  0.2468  0.0092 -0.0436
18040SOL    HW156114   6.713   7.339   7.492 -0.0241 -1.0479  0.7651
18040SOL    HW256115   6.821   7.423   7.558 -0.2889  0.3253 -0.5041
18041SOL     OW56116   3.757   7.843   7.606 -0.2543  0.1333  0.3378
18041SOL    HW156117   3.798   7.909   7.662  0.9089  1.1910 -1.6494
18041SOL    HW256118   3.803   7.762   7.627  0.0880  0.4833  0.9744
18042SOL     OW56119   2.425   3.348   4.428  0.2053  0.2303  0.4082
18042SOL    HW156120   2.391   3.272   4.379  2.2317  1.3096 -3.0176
18042SOL    HW256121   2.477   3.309   4.499  1.2436 -1.6919 -1.2882
18043SOL     OW56122   2.626   1.048   1.853  0.6713  0.0003  0.1312
18043SOL    HW156123   2.558   1.064   1.788  1.0820 -0.2952 -0.3814
18043SOL    HW256124   2.606   1.107   1.926  0.8024  1.0861 -0.6978
18044SOL     OW56125   1.629   2.354   2.041  0.0395  0.3157 -0.1128
18044SOL    HW156126   1.632   2.317   2.130  1.1260  0.5292 -0.0451
18044SOL    HW256127   1.654   2.282   1.984 -1.0632  0.0608 -0.3122
18045SOL     OW56128   3.518   3.389   0.714  0.0567  0.1191 -0.4818
18045SOL    HW156129   3.459   3.315   0.722  0.4379 -0.0396  1.0839
18045SOL    HW256130   3.601   3.358   0.750  0.1177  1.4067  0.5600
18046SOL     OW56131   0.812   6.880   4.693 -0.1244 -0.2322 -0.4092
18046SOL    HW156132   0.892   6.897   4.643  0.2844 -0.1918  0.2501
18046SOL    HW256133   0.762   6.819   4.638  0.2274 -0.0312 -0.9568
18047SOL     OW56134   6.857   5.554   8.724 -0.2194 -0.5720  0.3446
18047SOL    HW156135   6.830   5.481   8.780  0.1894 -1.2773 -0.3482
18047SOL    HW256136   6.832   5.527   8.635 -0.3350  0.2681  0.1113
18048SOL     OW56137   1.349   5.125   6.922 -0.1152 -0.6264 -0.1509
18048SOL    HW156138   1.418   5.191   6.918 -0.3520 -0.3978 -0.5085
18048SOL    HW256139   1.317   5.130   7.012  0.1247 -0.5234 -0.0686
18049SOL     OW56140   1.639   8.484   1.446  0.0147 -0.6162  0.1138
18049SOL    HW156141   1.666   8.393   1.431  0.7794 -0.2509 -0.7767
18049SOL    HW256142   1.635   8.492   1.541 -1.2156 -1.9072  0.2127
18050SOL     OW56143   1.062   5.879   7.104  0.4009  0.0173  0.4494
18050SOL    HW156144   1.119   5.804   7.087 -0.1418 -0.5421  1.0497
18050SOL    HW256145   1.075   5.937   7.029 -0.0010 -1.1901 -0.5778
18051SOL     OW56146   6.590   2.380   2.547 -0.1045  0.4306 -0.3552
18051SOL    HW156147   6.501   2.399   2.518 -1.3700 -2.5920  1.1733
18051SOL    HW256148   6.634   2.346   2.469 -1.2211 -0.7730 -0.4880
18052SOL     OW56149   4.067   4.452   3.503 -0.0089  0.2675  0.9981
18052SOL    HW156150   3.990   4.507   3.522  0.9333  1.3940  1.6958
18052SOL    HW256151   4.122   4.459   3.581  1.6762  1.0198 -0.1888
18053SOL     OW56152   5.724   0.770   7.851  0.1169  0.2328  0.3446
18053SOL    HW156153   5.814   0.755   7.822 -0.6231 -2.2139 -1.0558
18053SOL    HW256154   5.705   0.697   7.910 -1.4032 -0.2516 -0.6682
18054SOL     OW56155   8.062   2.289   1.983  0.1742 -0.0503  0.0337
18054SOL    HW156156   8.104   2.343   2.049 -1.4508  0.1600  0.9228
18054SOL    HW256157   8.135   2.256   1.929  1.4119  0.7001  1.2051
18055SOL     OW56158   7.136   4.588   0.970  0.4622  0.4364  0.0668
18055SOL    HW156159   7.229   4.571   0.955 -0.0257 -0.8364 -1.8718
18055SOL    HW256160   7.101   4.504   1.002 -0.6375 -0.2586 -2.6961
18056SOL     OW56161   8.110   5.272   4.253  0.0881 -0.0898  0.0102
18056SOL    HW156162   8.090   5.366   4.253  3.5270  0.8137 -2.3735
18056SOL    HW256163   8.194   5.265   4.298  0.8660 -1.6963 -1.5762
18057SOL     OW56164   7.931   3.323   8.135 -0.0225  0.4707  0.5201
18057SOL    HW156165   8.013   3.312   8.185 -1.6193 -0.1796  3.1888
18057SOL    HW256166   7.922   3.418   8.128  0.3908  0.5832  1.2719
18058SOL     OW56167   3.733   0.241   0.659  0.1625  0.2692 -0.3236
18058SOL    HW156168   3.825   0.266   0.664 -0.0197  1.0556 -0.7169
18058SOL    HW256169   3.694   0.274   0.740  0.0997  0.4831 -0.4411
18059SOL     OW56170   4.079   7.672   7.975  0.1847 -0.0732  0.4479
18059SOL    HW156171   4.108   7.757   7.942  0.9518 -0.2572  0.6367
18059SOL    HW256172   3.983   7.675   7.968  0.2229  0.6934  0.1879
18060SOL     OW56173   6.933   0.408   4.021 -0.1190  0.1401  0.4031
18060SOL    HW156174   6.881   0.364   4.089  1.2597 -1.1818  0.6742
18060SOL    HW256175   6.920   0.501   4.037 -0.9390 -0.1555  1.6162
18061SOL     OW56176   8.022   6.112   0.012  0.3054 -0.4120 -0.4602
18061SOL    HW156177   8.073   6.179   0.057 -1.0743 -0.3521  1.1199
18061SOL    HW256178   8.056   6.029   0.045  1.5340 -0.5285 -1.8868
18062SOL     OW56179   0.881   6.848   3.888 -0.3381 -0.1929 -0.6122
18062SOL    HW156180   0.850   6.930   3.851 -1.1693  0.0791  0.6177
18062SOL    HW256181   0.968   6.868   3.923 -1.4064  0.8331  1.6886
18063SOL     OW56182   7.484   2.012   3.149  0.1564 -0.1632 -0.1047
18063SOL    HW156183   7.495   2.093   3.101 -1.0251  0.2966  0.3623
18063SOL    HW256184   7.557   2.010   3.210 -0.6543  1.3828  0.9934
18064SOL     OW56185   7.171   7.603   2.745 -0.5082 -0.3592  0.7433
18064SOL    HW156186   7.187   7.624   2.653 -0.8598 -2.6657  0.0937
18064SOL    HW256187   7.089   7.554   2.744 -0.4342 -0.5622  2.2840
18065SOL     OW56188   6.726   8.116   2.690 -0.1157 -1.0093  0.3684
18065SOL    HW156189   6.794   8.181   2.672  0.1329 -0.9450  1.4834
18065SOL    HW256190   6.667   8.160   2.752 -0.1322 -1.7234  0.8701
18066SOL     OW56191   4.433   1.937   5.563  0.1270  0.0951  0.3695
18066SOL    HW156192   4.450   1.878   5.636 -0.3966 -1.1941 -0.5113
18066SOL    HW256193   4.433   2.024   5.602  0.2742 -0.5264  1.8209
18067SOL     OW56194   2.373   3.056   0.351 -0.5129  0.2590 -0.1720
18067SOL    HW156195   2.401   3.017   0.269  0.3927  0.5502 -0.0191
18067SOL    HW256196   2.408   2.999   0.419  0.7870  1.2641  0.0517
18068SOL     OW56197   8.272   8.305   3.758 -0.3978 -0.7009  0.3133
18068SOL    HW156198   8.223   8.223   3.743 -2.0093 -0.0041  1.4847
18068SOL    HW256199   8.235   8.341   3.838  0.4620  1.0755 -0.0349
18069SOL     OW56200   6.003   3.748   1.195  0.4799  0.0947  0.6247
18069SOL    HW156201   5.933   3.696   1.155  1.1759 -0.8972  0.6374
18069SOL    HW256202   6.072   3.750   1.128 -0.1465  2.4529 -0.0391
18070SOL     OW56203   6.556   1.571   7.368  0.1912  0.1799 -0.4149
18070SOL    HW156204   6.491   1.552   7.437 -0.2597  2.7123 -0.0607
18070SOL    HW256205   6.511   1.630   7.308  1.7260  0.8359 -0.9549
18071SOL     OW56206   6.363   7.915   7.262 -0.3991 -0.7286 -0.8517
18071SOL    HW156207   6.379   7.914   7.356 -0.6622  0.3661 -0.7873
18071SOL    HW256208   6.354   7.823   7.238 -0.0983 -1.0257  0.1499
18072SOL     OW56209   7.398   2.415   1.931 -0.5309  0.0583 -0.1784
18072SOL    HW156210   7.317   2.387   1.972 -1.5442  1.3224 -1.2188
18072SOL    HW256211   7.371   2.484   1.870  1.0183 -1.0817 -2.2606
18073SOL     OW56212   0.973   1.905   3.775  0.6737  0.0956  0.0909
18073SOL    HW156213   1.061   1.943   3.771  0.9780 -0.6350 -0.3534
18073SOL    HW256214   0.944   1.903   3.683  0.2171  0.2678  0.2265
18074SOL     OW56215   7.166   7.356   6.467  0.5350  0.8792  0.4194
18074SOL    HW156216   7.249   7.315   6.444  0.2623 -0.9248  2.4362
18074SOL    HW256217   7.157   7.342   6.561 -2.0883  0.9711  0.2495
18075SOL     OW56218   8.824   0.427   4.324 -0.0809  0.0134  0.0718
18075SOL    HW156219   8.801   0.510   4.281  0.8423  0.6928  0.8400
18075SOL    HW256220   8.914   0.439   4.352  0.5101 -1.7529 -0.9258
18076SOL     OW56221   2.640   3.077   4.216 -0.1937  1.0720 -0.4871
18076SOL    HW156222   2.548   3.067   4.191 -0.6710  2.3038  0.6842
18076SOL    HW256223   2.648   3.026   4.297  0.3321  0.4161 -0.9447
18077SOL     OW56224   0.178   0.707   4.419 -0.1921  0.3878  0.1928
18077SOL    HW156225   0.140   0.678   4.502 -1.0579 -0.1922 -0.3896
18077SOL    HW256226   0.112   0.765   4.381 -0.4300 -0.4425 -0.7160
18078SOL     OW56227   5.879   3.026   0.447 -0.2375 -0.0335  0.4666
18078SOL    HW156228   5.807   2.964   0.431  1.1059 -1.6524  0.4266
18078SOL    HW256229   5.931   2.985   0.516  0.6956  1.0767  0.4585
18079SOL     OW56230   8.073   2.372   5.141 -0.3669 -0.2605 -0.4012
18079SOL    HW156231   8.042   2.451   5.098  0.4515  0.3254  0.0446
18079SOL    HW256232   8.121   2.404   5.218  2.5359 -1.0022 -1.7705
18080SOL     OW56233   4.120   4.295   7.741 -0.4427  0.2132 -0.6088
18080SOL    HW156234   4.026   4.275   7.740 -0.4396  0.0215  0.6535
18080SOL    HW256235   4.161   4.214   7.772  0.1065  0.3940 -0.8562
18081SOL     OW56236   2.488   2.361   7.882  0.0940  0.2871 -0.2236
18081SOL    HW156237   2.423   2.295   7.906  0.1971  0.4740  0.6298
18081SOL    HW256238   2.534   2.380   7.964  0.9109  0.5028 -0.7159
18082SOL     OW56239   5.236   5.286   0.694  0.0786 -0.1155 -0.1206
18082SOL    HW156240   5.149   5.319   0.670  0.2273 -0.5220 -1.2575
18082SOL    HW256241   5.251   5.322   0.781 -0.8659  0.6816 -0.2623
18083SOL     OW56242   8.443   5.820   8.126  0.4106  0.0819 -0.3658
18083SOL    HW156243   8.490   5.888   8.079  2.0737 -0.1736  0.8171
18083SOL    HW256244   8.464   5.739   8.078  1.0110  0.0031  0.0159
18084SOL     OW56245   5.387   6.687   6.168  0.0726 -0.4440  0.3114
18084SOL    HW156246   5.371   6.639   6.086  2.1537 -0.5033 -0.0951
18084SOL    HW256247   5.361   6.626   6.237 -0.5133 -0.8550 -0.2597
18085SOL     OW56248   3.728   4.748   4.395  0.1477 -0.1917 -0.2689
18085SOL    HW156249   3.635   4.762   4.408  0.2294  1.0200 -0.8397
18085SOL    HW256250   3.734   4.685   4.323 -0.2398  0.9410 -1.3186
18086SOL     OW56251   4.660   4.413   0.659 -0.1604  0.2974  0.0654
18086SOL    HW156252   4.700   4.444   0.577  0.8918  0.4763  0.6299
18086SOL    HW256253   4.594   4.478   0.680 -0.4945  0.2133 -0.6728
18087SOL     OW56254   8.745   8.453   7.467 -0.4944  0.3966  0.4307
18087SOL    HW156255   8.700   8.398   7.402  0.4626 -0.1343  0.1856
18087SOL    HW256256   8.761   8.535   7.422 -0.2849  0.2083  0.1565
18088SOL     OW56257   7.401   3.704   4.476 -0.3520 -0.1690  0.1318
18088SOL    HW156258   7.468   3.722   4.409 -0.3481 -1.7486 -0.3403
18088SOL    HW256259   7.450   3.665   4.548 -0.6915 -0.9861 -0.0645
18089SOL     OW56260   2.828   5.113   7.936  0.0480  0.3335 -0.0919
18089SOL    HW156261   2.835   5.046   8.004 -0.9127  0.5405  0.2301
18089SOL    HW256262   2.900   5.174   7.956  0.6037 -0.3168 -0.0776
18090SOL     OW56263   1.497   8.024   5.745  0.1926  0.3733  0.9670
18090SOL    HW156264   1.577   8.077   5.740  0.0847  0.5211  0.7703
18090SOL    HW256265   1.470   8.031   5.836 -1.6302  3.3813  0.3488
18091SOL     OW56266   4.700   7.778   0.611  0.1357 -0.0640  0.1718
18091SOL    HW156267   4.766   7.843   0.638  0.1196  0.3127 -0.6642
18091SOL    HW256268   4.617   7.816   0.638  0.1709  0.0187  0.1664
18092SOL     OW56269   6.662   2.735   3.026 -0.0919  0.4173  0.3858
18092SOL    HW156270   6.751   2.757   2.997 -0.3082  0.4093 -0.2986
18092SOL    HW256271   6.616   2.819   3.027 -0.4466  0.2490 -0.5838
18093SOL     OW56272   0.582   8.422   1.673 -0.4484  0.1288 -0.3158
18093SOL    HW156273   0.577   8.497   1.613 -0.7148 -0.2770 -0.8106
18093SOL    HW256274   0.495   8.382   1.668 -0.6227  0.3472  0.6913
18094SOL     OW56275   4.087   0.913   3.094  0.2767 -0.2225 -0.1517
18094SOL    HW156276   3.998   0.883   3.114  0.2134 -0.0429 -0.1614
18094SOL    HW256277   4.074   0.990   3.038  0.4087  0.4409  0.7034
18095SOL     OW56278   6.036   6.180   5.166  0.0898  0.3263 -0.1101
18095SOL    HW156279   6.089   6.255   5.139  0.1058  1.5184  2.9277
18095SOL    HW256280   5.952   6.192   5.121 -0.3315  2.8800  1.2171
18096SOL     OW56281   1.069   0.251   1.987 -0.0923  0.2128 -0.1608
18096SOL    HW156282   1.100   0.337   2.016  1.2578  0.0772 -1.1102
18096SOL    HW256283   1.047   0.264   1.895 -0.6737 -0.2723 -0.0927
18097SOL     OW56284   0.709   2.492   0.396  0.4113  0.2461 -0.0157
18097SOL    HW156285   0.654   2.432   0.346 -2.7294  2.5231  0.4282
18097SOL    HW256286   0.741   2.555   0.331  0.0391  0.6303  0.1727
18098SOL     OW56287   5.048   8.546   8.840  0.2419 -0.0240  0.3045
18098SOL    HW156288   5.027   8.477   8.777  0.7586  0.0203  0.0798
18098SOL    HW256289   5.143   8.544   8.847  0.1414 -0.9745  2.1564
18099SOL     OW56290   4.505   1.069   8.245 -0.4595 -0.0152  0.2694
18099SOL    HW156291   4.470   1.119   8.171 -0.7306  0.2206  0.5550
18099SOL    HW256292   4.488   0.978   8.223  0.2656 -0.0052 -0.3749
18100SOL     OW56293   1.636   6.727   7.732 -0.7643 -0.5650  0.0392
18100SOL    HW156294   1.564   6.755   7.675 -0.0746  0.2693 -0.4390
18100SOL    HW256295   1.603   6.743   7.820 -1.5989 -1.2701 -0.1229
18101SOL     OW56296   7.743   7.116   7.722  0.5492 -0.2312  0.8874
18101SOL    HW156297   7.666   7.139   7.774 -0.2073  2.5319 -1.2018
18101SOL    HW256298   7.707   7.093   7.636  1.9987  0.8667 -0.0512
18102SOL     OW56299   8.112   0.313   8.654 -0.1954 -0.5644  0.0915
18102SOL    HW156300   8.021   0.343   8.648 -0.4339 -0.9952  1.2792
18102SOL    HW256301   8.115   0.262   8.734  1.3543  0.3230  0.6414
18103SOL     OW56302   2.073   1.013   7.234  0.6447  0.4244 -0.3055
18103SOL    HW156303   2.071   1.109   7.227 -0.4048  0.5382  1.0885
18103SOL    HW256304   2.014   0.983   7.166 -0.3957  0.8743  0.3781
18104SOL     OW56305   8.333   4.430   2.349  0.1156 -0.0652 -0.2427
18104SOL    HW156306   8.269   4.363   2.373  1.3050 -0.9660  0.5709
18104SOL    HW256307   8.293   4.513   2.376 -1.7383 -0.3027 -1.9977
18105SOL     OW56308   7.987   1.117   5.315 -0.4192 -0.3532 -0.2937
18105SOL    HW156309   7.977   1.024   5.293  0.1304 -0.6787  0.7736
18105SOL    HW256310   8.025   1.117   5.403 -1.6374  0.8952  0.2717
18106SOL     OW56311   6.641   7.483   1.213 -1.0557 -0.0216 -0.3903
18106SOL    HW156312   6.569   7.545   1.198 -2.8782 -2.1006 -0.6705
18106SOL    HW256313   6.664   7.452   1.126 -0.0774  0.3308 -0.2607
18107SOL     OW56314   1.814   7.218   3.313 -0.0945  0.1825 -0.5853
18107SOL    HW156315   1.753   7.237   3.384  0.7536  0.2797  0.1467
18107SOL    HW256316   1.809   7.295   3.257 -1.9153 -0.5544 -1.5067
18108SOL     OW56317   0.241   8.846   5.215  0.0153  0.1974  0.1938
18108SOL    HW156318   0.290   8.833   5.134 -2.4494  1.5335 -1.6707
18108SOL    HW256319   0.240   8.760   5.257  0.9334 -0.6784 -1.4704
18109SOL     OW56320   8.194   3.104   1.466  0.9579 -0.1082 -0.3390
18109SOL    HW156321   8.213   3.048   1.541  1.0013 -1.0432 -1.0315
18109SOL    HW256322   8.182   3.191   1.504  0.1040 -0.7163  0.8579
18110SOL     OW56323   7.250   0.462   7.994  0.1017 -0.2017  0.3270
18110SOL    HW156324   7.274   0.409   7.918  0.3734  0.6217 -0.1752
18110SOL    HW256325   7.255   0.401   8.067 -0.8543 -1.1861 -0.3967
18111SOL     OW56326   2.649   6.910   1.443 -0.1956 -0.3022  0.2267
18111SOL    HW156327   2.679   6.985   1.495 -0.7344  1.4246 -1.7739
18111SOL    HW256328   2.561   6.934   1.416 -0.3942 -1.7016 -0.4547
18112SOL     OW56329   3.790   6.883   4.893 -0.2798 -0.4053  0.6214
18112SOL    HW156330   3.740   6.844   4.821 -0.1074  0.0579  0.2493
18112SOL    HW256331   3.773   6.825   4.967  0.4380 -1.5375 -0.0656
18113SOL     OW56332   7.166   1.746   6.553 -0.7610 -0.6094  0.0338
18113SOL    HW156333   7.181   1.728   6.460 -1.1385 -1.4187  0.1138
18113SOL    HW256334   7.085   1.697   6.573 -0.5532 -0.6311  0.8363
18114SOL     OW56335   7.649   0.221   3.475  0.0852  0.5310  0.0746
18114SOL    HW156336   7.595   0.160   3.425  0.9730 -1.1763  1.0842
18114SOL    HW256337   7.626   0.205   3.567  0.8716  1.1844  0.4075
18115SOL     OW56338   7.706   3.917   0.786  0.0497 -0.1200  0.1324
18115SOL    HW156339   7.741   3.920   0.875  0.2975 -0.7351  0.0610
18115SOL    HW256340   7.783   3.909   0.730 -0.0531  0.9908 -0.2009
18116SOL     OW56341   2.861   1.648   7.765  0.0484  0.2296  0.0540
18116SOL    HW156342   2.898   1.574   7.812  3.4119  2.3941  1.2420
18116SOL    HW256343   2.897   1.641   7.677  2.0174  1.3598  0.7066
18117SOL     OW56344   3.473   5.224   0.456  0.0796 -0.1039  0.0707
18117SOL    HW156345   3.545   5.253   0.400  1.4672 -0.4372  1.6299
18117SOL    HW256346   3.486   5.270   0.539 -1.4032 -0.3225  0.4652
18118SOL     OW56347   3.675   8.208   3.328  0.5013 -0.1405  0.0793
18118SOL    HW156348   3.607   8.232   3.391  0.1987 -1.2919  0.2108
18118SOL    HW256349   3.630   8.204   3.244  0.0374 -2.4037  0.3939
18119SOL     OW56350   0.009   3.563   5.754 -0.6829  0.0379 -0.0843
18119SOL    HW156351   0.030   3.496   5.819 -0.9664  1.0708  1.0995
18119SOL    HW256352   0.082   3.558   5.692 -0.8953 -1.6175 -0.2568
18120SOL     OW56353   4.774   4.874   2.305 -0.9598  0.0321 -0.2861
18120SOL    HW156354   4.732   4.854   2.222 -1.3934 -1.4839  0.2748
18120SOL    HW256355   4.716   4.837   2.372 -0.2952  0.6477  0.6723
18121SOL     OW56356   5.512   5.691   3.585 -0.5435 -0.4398 -0.1064
18121SOL    HW156357   5.436   5.664   3.534 -1.9325  0.6277  1.2938
18121SOL    HW256358   5.518   5.625   3.655 -0.7889  0.0261  0.3559
18122SOL     OW56359   1.821   0.725   0.727  0.0020  0.4270  0.9704
18122SOL    HW156360   1.829   0.649   0.785  0.4546  0.8818  1.5184
18122SOL    HW256361   1.738   0.765   0.751  0.1205  0.5318  1.2202
18123SOL     OW56362   8.870   1.229   2.390 -0.4064 -0.0049  0.0305
18123SOL    HW156363   8.838   1.319   2.396  1.9227  1.1583 -2.4469
18123SOL    HW256364   8.813   1.189   2.324 -0.2836  0.2613 -0.2415
18124SOL     OW56365   4.189   6.927   3.642  0.0274  0.0152 -0.2491
18124SOL    HW156366   4.239   7.001   3.607  1.3459  0.1816  1.7838
18124SOL    HW256367   4.162   6.956   3.729  1.9603 -2.3481  1.2810
18125SOL     OW56368   1.891   8.529   4.682  0.1643  0.5565 -0.2211
18125SOL    HW156369   1.955   8.471   4.723  0.6555  0.9878 -0.3586
18125SOL    HW256370   1.812   8.521   4.736  0.4912  0.3777  0.2330
18126SOL     OW56371   7.029   5.505   4.159 -0.3213 -0.0780  0.1508
18126SOL    HW156372   7.078   5.425   4.179 -1.1200 -0.8137 -0.6742
18126SOL    HW256373   7.022   5.551   4.242  2.0630  0.2563  0.2215
18127SOL     OW56374   4.245   8.812   7.463  0.0261 -1.4356 -0.9706
18127SOL    HW156375   4.189   8.742   7.428 -0.4195 -1.1418 -0.8541
18127SOL    HW256376   4.223   8.889   7.409 -0.8977 -0.8944  0.1451
18128SOL     OW56377   3.704   2.435   3.906 -0.0995  0.2128  0.2046
18128SOL    HW156378   3.635   2.484   3.862  0.9505  1.4149 -0.1605
18128SOL    HW256379   3.785   2.469   3.868  0.7250 -0.4630  1.3200
18129SOL     OW56380   2.934   0.624   8.514 -0.0843  0.1739  0.1845
18129SOL    HW156381   2.883   0.703   8.535 -0.4503  0.2591 -0.9285
18129SOL    HW256382   2.929   0.570   8.593  0.5234  1.4325  1.1294
18130SOL     OW56383   5.693   2.783   5.147  0.0200  0.0686  0.5271
18130SOL    HW156384   5.788   2.773   5.147  0.0716  0.4800 -0.5894
18130SOL    HW256385   5.679   2.877   5.162 -0.2482 -0.1468  1.7321
18131SOL     OW56386   7.913   5.025   8.534 -0.2948  0.2233  0.1347
18131SOL    HW156387   7.875   5.002   8.450 -0.7904  0.6223  0.2433
18131SOL    HW256388   7.947   4.943   8.570  0.3417  0.1283 -0.6612
18132SOL     OW56389   3.441   2.132   1.297 -0.3192 -0.7923  0.2569
18132SOL    HW156390   3.534   2.141   1.278 -0.4200 -1.5889 -0.7383
18132SOL    HW256391   3.438   2.094   1.385  0.3005 -0.9844  0.2012
18133SOL     OW56392   8.364   1.997   8.818  0.6448  0.1237  0.0138
18133SOL    HW156393   8.382   1.976   8.910  0.6493 -2.3570 -0.4645
18133SOL    HW256394   8.270   2.014   8.815  0.5505 -0.3089  0.4019
18134SOL     OW56395   1.254   6.142   8.278  0.3230 -0.0776  0.3712
18134SOL    HW156396   1.267   6.108   8.367 -0.6076  1.4303  1.1414
18134SOL    HW256397   1.339   6.177   8.252  0.1732  1.2633  1.5238
18135SOL     OW56398   5.362   8.439   3.641  0.1227  0.7039  0.5202
18135SOL    HW156399   5.307   8.494   3.586 -0.7665 -1.9219 -1.4044
18135SOL    HW256400   5.447   8.484   3.641 -0.0628  1.2616 -2.3708
18136SOL     OW56401   5.799   2.697   0.765 -0.1375 -0.6634  0.2367
18136SOL    HW156402   5.846   2.780   0.756  2.1422 -1.7615  1.3772
18136SOL    HW256403   5.757   2.703   0.851  0.3614 -0.8300  0.4966
18137SOL     OW56404   1.540   0.364   2.724 -0.2312 -0.1860 -0.2746
18137SOL    HW156405   1.465   0.314   2.691  0.3086 -0.2410 -1.4877
18137SOL    HW256406   1.591   0.385   2.645  0.6618  0.4540  0.4505
18138SOL     OW56407   2.294   3.563   3.777 -0.3146 -0.2964  0.2537
18138SOL    HW156408   2.355   3.584   3.706 -0.2859  0.3048  0.4482
18138SOL    HW256409   2.211   3.548   3.733 -0.0769 -0.9235  0.0051
18139SOL     OW56410   7.252   1.915   4.869  0.5544  0.4971  0.5681
18139SOL    HW156411   7.256   1.948   4.780 -0.8959  0.2557  0.3896
18139SOL    HW256412   7.170   1.949   4.904  0.7326 -0.0317  1.5592
18140SOL     OW56413   2.354   2.563   7.445 -0.2012  0.3787 -0.2933
18140SOL    HW156414   2.265   2.528   7.446  0.5062 -1.5610 -0.4779
18140SOL    HW256415   2.350   2.639   7.504 -1.7385 -0.2875  0.5347
18141SOL     OW56416   1.924   8.796   7.230  0.8044  0.3459 -0.3679
18141SOL    HW156417   1.831   8.786   7.249  0.8709  0.1808 -0.1191
18141SOL    HW256418   1.937   8.890   7.218  0.5127  0.3212 -0.9046
18142SOL     OW56419   8.366   8.677   1.612 -0.3175  0.0514  0.6291
18142SOL    HW156420   8.447   8.688   1.663  0.2473  0.8100 -0.3917
18142SOL    HW256421   8.307   8.630   1.671  0.7107 -0.1196  1.5605
18143SOL     OW56422   3.157   2.974   5.162  0.4159 -0.1512 -0.0944
18143SOL    HW156423   3.249   2.964   5.187  0.5030  0.0103 -0.3388
18143SOL    HW256424   3.139   2.899   5.106  0.1557 -0.6352  0.6257
18144SOL     OW56425   4.033   0.251   4.425 -0.4743 -0.0881  1.0122
18144SOL    HW156426   3.973   0.310   4.379  0.1235 -0.0156  0.3018
18144SOL    HW256427   4.050   0.181   4.362 -0.6223 -0.6588  1.5924
18145SOL     OW56428   8.071   2.877   8.165  0.2403  0.6538 -0.0455
18145SOL    HW156429   8.146   2.930   8.138  0.8410 -0.4136 -0.5630
18145SOL    HW256430   8.047   2.829   8.086 -0.2684  0.1468  0.4121
18146SOL     OW56431   2.215   5.471   1.219 -0.0152  0.3375  0.3040
18146SOL    HW156432   2.135   5.508   1.182  1.6122  2.2221 -1.6663
18146SOL    HW256433   2.243   5.534   1.285  0.3545  0.2282  0.2567
18147SOL     OW56434   3.392   6.457   1.659 -0.4335  0.0365 -0.1042
18147SOL    HW156435   3.386   6.551   1.646  2.1505  0.3257  0.2519
18147SOL    HW256436   3.475   6.444   1.706 -0.9798 -2.3713  0.3492
18148SOL     OW56437   6.979   5.213   6.089 -0.2394  0.0563 -0.1464
18148SOL    HW156438   6.986   5.162   6.170 -0.5475  0.2208 -0.0158
18148SOL    HW256439   7.063   5.260   6.083  0.4902 -1.2648 -0.8197
18149SOL     OW56440   7.470   5.268   7.934  0.0586 -0.4574 -0.4173
18149SOL    HW156441   7.484   5.187   7.982  1.8258  0.3223  0.4434
18149SOL    HW256442   7.474   5.337   8.000 -2.2819  0.3251 -0.9978
18150SOL     OW56443   0.779   5.820   0.105 -0.0531 -0.3182 -0.5240
18150SOL    HW156444   0.768   5.819   0.200  1.6799 -1.0809 -0.2921
18150SOL    HW256445   0.852   5.880   0.090  1.8814 -2.6015 -1.0130
18151SOL     OW56446   8.881   4.226   8.873  0.0606 -0.0542  0.2860
18151SOL    HW156447   8.843   4.225   8.961 -0.0456 -2.2245  0.2778
18151SOL    HW256448   8.975   4.226   8.888  0.0538  0.9215  0.3676
18152SOL     OW56449   1.902   0.056   1.935  0.2226 -0.0812  0.2546
18152SOL    HW156450   1.964   0.081   1.867  1.5771  1.4463  1.9723
18152SOL    HW256451   1.900  -0.040   1.932 -1.0535 -0.0683 -2.9755
18153SOL     OW56452   6.954   6.038   0.031 -0.3588 -0.3655  0.0875
18153SOL    HW156453   7.014   5.988   0.087  3.5341  1.0699 -2.3415
18153SOL    HW256454   6.919   5.974  -0.031  1.4867 -0.8119 -0.5710
18154SOL     OW56455   6.968   5.661   8.203 -0.5672 -1.0869 -0.3300
18154SOL    HW156456   6.920   5.579   8.215 -2.2680 -0.0085  0.5708
18154SOL    HW256457   6.905   5.721   8.164 -0.1538  0.5448  1.3546
18155SOL     OW56458   5.084   1.109   5.617 -0.2098  0.0137 -0.0799
18155SOL    HW156459   5.168   1.154   5.626 -0.5131  0.8294 -1.1045
18155SOL    HW256460   5.102   1.018   5.640  0.7724  0.3307  0.4637
18156SOL     OW56461   2.829   7.540   7.424 -0.3830  0.1760  0.0177
18156SOL    HW156462   2.835   7.560   7.518 -2.1270  0.4436  0.1094
18156SOL    HW256463   2.737   7.517   7.411  0.1671 -1.4457 -1.3433
18157SOL     OW56464   4.221   5.073   5.320  0.0055  0.3876  0.0521
18157SOL    HW156465   4.259   5.056   5.234 -0.4913 -2.5100  0.3105
18157SOL    HW256466   4.291   5.050   5.382  0.1549  1.8682  0.4750
18158SOL     OW56467   7.658   0.695   5.649 -0.1160  0.3781  0.0446
18158SOL    HW156468   7.565   0.677   5.636  0.0345 -2.1245  1.6554
18158SOL    HW256469   7.672   0.680   5.743  2.3497 -2.0297 -0.5756
18159SOL     OW56470   7.535   7.564   7.116 -0.6018 -0.3778  0.1221
18159SOL    HW156471   7.547   7.545   7.209  0.6270  0.1050  0.0837
18159SOL    HW256472   7.604   7.514   7.072  0.0805  0.9181 -0.3356
18160SOL     OW56473   2.878   4.867   4.617  0.0796 -0.4757 -0.0805
18160SOL    HW156474   2.959   4.882   4.568 -0.1672  1.0372 -0.0805
18160SOL    HW256475   2.885   4.927   4.692 -1.0080 -0.3576 -0.0640
18161SOL     OW56476   8.045   2.410   7.060  0.1176  0.6583  0.1567
18161SOL    HW156477   8.076   2.501   7.057 -0.5167  0.8563 -1.3564
18161SOL    HW256478   8.112   2.360   7.015 -0.3853  0.6767 -0.6437
18162SOL     OW56479   8.168   0.737   6.976  0.0689 -0.1121  0.7095
18162SOL    HW156480   8.139   0.815   7.023  0.2512  0.8820 -0.7399
18162SOL    HW256481   8.191   0.674   7.044  0.3633  1.2720  1.9269
18163SOL     OW56482   4.594   7.476   2.705 -0.5407 -0.0669  0.3192
18163SOL    HW156483   4.668   7.508   2.654 -2.5629  0.7186 -2.3060
18163SOL    HW256484   4.568   7.550   2.759 -0.0653 -0.0154  0.4812
18164SOL     OW56485   4.631   6.226   4.236 -0.5715 -0.6190  0.3266
18164SOL    HW156486   4.546   6.252   4.272 -2.0144 -2.2497 -1.6631
18164SOL    HW256487   4.609   6.169   4.162  2.2755 -2.7827  0.9616
18165SOL     OW56488   8.693   2.167   5.088 -0.8231  0.2367 -0.1670
18165SOL    HW156489   8.742   2.145   5.009  0.6705 -0.1041  0.8107
18165SOL    HW256490   8.753   2.222   5.139 -1.8960  0.7616  0.5704
18166SOL     OW56491   7.437   7.607   5.069  0.6746  0.1298 -0.0065
18166SOL    HW156492   7.387   7.666   5.125 -0.0762 -0.0006 -0.5140
18166SOL    HW256493   7.485   7.551   5.130 -0.4982 -0.3303  0.5388
18167SOL     OW56494   2.230   6.478   5.058  0.1273 -0.0790  0.5176
18167SOL    HW156495   2.159   6.452   5.117 -0.5743  2.1948  0.7749
18167SOL    HW256496   2.300   6.509   5.116 -0.6353  2.3381  0.2709
18168SOL     OW56497   4.158   5.770   4.999 -0.3568  0.1558  0.3493
18168SOL    HW156498   4.075   5.739   5.036 -0.1448 -2.1348 -0.9183
18168SOL    HW256499   4.221   5.700   5.019  0.3383  0.0074 -2.0304
18169SOL     OW56500   6.632   3.561   8.298  0.3379 -0.2593  0.3735
18169SOL    HW156501   6.653   3.497   8.366 -1.2274 -0.6750  0.5059
18169SOL    HW256502   6.572   3.514   8.239 -1.1228  1.1800  0.6675
18170SOL     OW56503   5.297   1.622   3.365 -0.4432 -0.6524  0.1793
18170SOL    HW156504   5.295   1.529   3.341 -0.4532 -0.7452  0.5390
18170SOL    HW256505   5.285   1.622   3.460  1.1156 -0.3778  0.4026
18171SOL     OW56506   2.997   6.342   5.979 -0.5066  0.5689 -0.0422
18171SOL    HW156507   2.930   6.397   5.938 -0.7899 -0.8281 -1.5447
18171SOL    HW256508   2.949   6.286   6.039 -0.8646 -0.9561 -1.6705
18172SOL     OW56509   2.820   1.736   8.714 -0.2748  0.1503  0.1106
18172SOL    HW156510   2.868   1.776   8.642 -1.1922  1.3576  0.1441
18172SOL    HW256511   2.809   1.806   8.778  0.7592 -0.9666  1.5747
18173SOL     OW56512   4.660   5.460   0.358 -0.3109 -0.2629  0.0675
18173SOL    HW156513   4.663   5.475   0.452  0.7882  1.4767 -0.2255
18173SOL    HW256514   4.567   5.466   0.336 -0.3800  1.4167  0.7361
18174SOL     OW56515   2.713   5.085   1.195 -0.1385 -0.1728  0.1840
18174SOL    HW156516   2.689   5.056   1.106 -0.2357  0.3361  0.0406
18174SOL    HW256517   2.691   5.011   1.251 -1.9664  0.2194  0.0461
18175SOL     OW56518   0.388   1.157   4.628 -0.1608 -0.2985 -0.2383
18175SOL    HW156519   0.434   1.225   4.579  0.9508 -1.5255 -0.9785
18175SOL    HW256520   0.433   1.153   4.712  1.0553 -1.3749 -0.8968
18176SOL     OW56521   7.858   7.051   2.018 -0.3933 -0.1442 -0.7440
18176SOL    HW156522   7.871   7.139   2.051  0.5819 -0.7966  0.7262
18176SOL    HW256523   7.941   7.030   1.974 -0.6164 -0.3348 -1.0772
18177SOL     OW56524   7.142   1.658   1.790  0.0336 -0.0468 -0.4858
18177SOL    HW156525   7.197   1.618   1.857  1.4507  0.0134 -1.5847
18177SOL    HW256526   7.132   1.590   1.723 -3.9990 -1.3133  1.0618
18178SOL     OW56527   7.577   3.726   6.331 -0.1509  0.0868  0.2216
18178SOL    HW156528   7.526   3.673   6.392 -0.6298  0.3084  0.0182
18178SOL    HW256529   7.594   3.807   6.378 -0.4657  0.2328  0.0833
18179SOL     OW56530   3.457   6.338   6.129 -0.2180 -0.0182  0.0403
18179SOL    HW156531   3.485   6.252   6.160 -0.7176 -0.6089 -1.1011
18179SOL    HW256532   3.362   6.339   6.145 -0.3583 -0.0402 -0.7803
18180SOL     OW56533   4.464   1.682   0.770 -0.6716 -0.6216  0.3530
18180SOL    HW156534   4.467   1.774   0.799 -2.2117 -0.5535  0.4208
18180SOL    HW256535   4.482   1.685   0.676 -0.9493 -0.2112  0.3105
18181SOL     OW56536   5.819   8.798   1.360  0.0746  0.4302  0.1752
18181SOL    HW156537   5.753   8.807   1.291 -1.2129  0.3705  1.3584
18181SOL    HW256538   5.902   8.821   1.317 -0.6273 -0.0228 -1.4814
18182SOL     OW56539   2.674   7.221   8.844  0.5364 -0.2166  0.1184
18182SOL    HW156540   2.713   7.169   8.774  2.1818  1.7754 -0.5361
18182SOL    HW256541   2.741   7.226   8.912  0.7382  1.6371 -0.1679
18183SOL     OW56542   8.256   6.193   2.579  0.5879 -0.7490 -0.0613
18183SOL    HW156543   8.252   6.269   2.521  0.3008 -0.6803  0.0429
18183SOL    HW256544   8.271   6.230   2.666 -0.2810 -0.7483  0.1033
18184SOL     OW56545   4.985   8.179   7.004  0.4282  0.7064 -0.5004
18184SOL    HW156546   5.063   8.201   7.055 -0.1181  0.1821  0.6064
18184SOL    HW256547   4.951   8.263   6.975  0.8312  1.0109 -0.1047
18185SOL     OW56548   2.050   8.863   7.553 -0.1273 -0.2303 -0.3514
18185SOL    HW156549   2.051   8.955   7.527 -0.6818  0.9792  3.3307
18185SOL    HW256550   2.092   8.861   7.639 -2.1578 -3.0091  0.7538
18186SOL     OW56551   6.964   7.678   1.769  0.0138 -0.1656 -0.1495
18186SOL    HW156552   7.009   7.737   1.830 -0.0611  1.0241 -1.1977
18186SOL    HW256553   7.035   7.640   1.716 -0.1064  1.2010 -1.3589
18187SOL     OW56554   1.511   7.361   6.729 -0.1551 -0.5938 -0.0613
18187SOL    HW156555   1.482   7.326   6.645  0.3626 -1.8051  0.2281
18187SOL    HW256556   1.594   7.405   6.709  0.7622 -2.1981  0.0165
18188SOL     OW56557   6.061   0.472   8.291  0.1271 -0.0861 -0.2171
18188SOL    HW156558   6.119   0.524   8.346 -0.7408  1.1723 -0.4375
18188SOL    HW256559   5.980   0.523   8.286 -0.6473 -1.3006 -0.7418
18189SOL     OW56560   5.897   4.719   4.776  0.1165 -0.4260 -0.6605
18189SOL    HW156561   5.944   4.796   4.743  0.2260 -0.4902 -0.6551
18189SOL    HW256562   5.923   4.648   4.716  1.0161 -0.7516  0.0829
18190SOL     OW56563   1.084   1.049   1.267  0.1665 -0.0515  0.6450
18190SOL    HW156564   1.100   1.128   1.317 -0.5922  0.2486  0.4380
18190SOL    HW256565   0.988   1.042   1.263  0.0619  1.2036 -2.6698
18191SOL     OW56566   1.364   3.547   7.775  1.1407 -0.3041  0.3407
18191SOL    HW156567   1.373   3.469   7.720 -0.5181 -0.2027 -0.1461
18191SOL    HW256568   1.280   3.585   7.748  1.6417  1.3364  0.9674
18192SOL     OW56569   5.038   6.846   3.239  0.7720 -0.7944  0.3495
18192SOL    HW156570   5.051   6.926   3.290  2.5878 -0.4258 -0.5940
18192SOL    HW256571   5.028   6.778   3.305 -0.2000  0.1020  1.1749
18193SOL     OW56572   8.334   2.274   2.605 -0.1176  0.1595  0.1252
18193SOL    HW156573   8.355   2.364   2.579 -1.2353  0.1984 -0.7174
18193SOL    HW256574   8.334   2.276   2.701  0.6126  0.8638  0.1266
18194SOL     OW56575   8.421   3.019   2.293 -0.4959 -0.2086 -0.2460
18194SOL    HW156576   8.481   2.972   2.235  0.1350 -1.0662  1.0401
18194SOL    HW256577   8.409   3.105   2.252  2.6056  0.4648  0.0860
18195SOL     OW56578   7.168   0.757   4.619 -0.5421 -0.2860 -0.1382
18195SOL    HW156579   7.184   0.829   4.680 -1.8601  0.0248 -0.1380
18195SOL    HW256580   7.160   0.680   4.674 -0.6585 -0.1797 -0.0059
18196SOL     OW56581   5.809   8.444   7.126  0.2604  0.0650  0.4588
18196SOL    HW156582   5.754   8.379   7.082  0.3342  0.1588  0.2261
18196SOL    HW256583   5.747   8.506   7.165  0.2009  0.1485  0.2292
18197SOL     OW56584   5.938   5.104   1.629 -0.1176  0.4082 -0.5095
18197SOL    HW156585   5.902   5.018   1.607 -0.7702  0.6487 -0.3973
18197SOL    HW256586   6.032   5.089   1.638 -0.1908 -0.2346 -0.7762
18198SOL     OW56587   1.280   8.380   3.306 -0.2113 -0.7926  1.0126
18198SOL    HW156588   1.337   8.440   3.257 -0.4479 -0.1647  1.5015
18198SOL    HW256589   1.193   8.395   3.269 -0.1389 -1.4349  0.5687
18199SOL     OW56590   2.782   2.772   1.551  0.2486 -0.6310  0.1496
18199SOL    HW156591   2.740   2.791   1.635  0.2611 -1.0659  0.2604
18199SOL    HW256592   2.754   2.682   1.531  1.5142 -1.1022  0.4588
18200SOL     OW56593   0.414   0.932   6.441  0.0853  0.4998 -0.0526
18200SOL    HW156594   0.384   0.937   6.532  1.4875 -0.2568  0.4766
18200SOL    HW256595   0.394   1.018   6.405 -0.3912  0.8519  1.0107
18201SOL     OW56596   4.129   1.202   8.255  0.6772  0.1366  0.1523
18201SOL    HW156597   4.054   1.262   8.257  1.1617  0.7386  1.1128
18201SOL    HW256598   4.205   1.258   8.240  1.1616 -0.1863  1.2428
18202SOL     OW56599   0.541   5.811   3.751  0.3331  0.2506  0.5007
18202SOL    HW156600   0.498   5.878   3.699 -2.2278 -2.4383 -1.2031
18202SOL    HW256601   0.548   5.848   3.839 -0.7349  2.7765 -0.4015
18203SOL     OW56602   0.443   2.686   3.986  0.2635 -0.3003  0.3033
18203SOL    HW156603   0.439   2.592   4.001 -0.9189 -0.3699 -0.3132
18203SOL    HW256604   0.379   2.723   4.047 -0.1831 -0.0269 -0.3179
18204SOL     OW56605   5.409   6.935   2.647 -0.3944 -0.3934  0.1542
18204SOL    HW156606   5.403   6.879   2.725  0.8940 -0.0490  0.5262
18204SOL    HW256607   5.500   6.966   2.647 -0.4159 -0.2829 -1.4241
18205SOL     OW56608   4.486   8.787   6.644 -0.0560 -0.2206  0.0990
18205SOL    HW156609   4.508   8.752   6.731 -0.6571 -0.3853  0.1903
18205SOL    HW256610   4.443   8.714   6.599 -0.4032  0.0921 -0.0765
18206SOL     OW56611   6.992   7.285   4.556 -0.4016  0.5041  0.5869
18206SOL    HW156612   6.951   7.357   4.605 -2.2068 -0.8441  1.2281
18206SOL    HW256613   7.053   7.246   4.618 -1.4767 -0.1765  1.2718
18207SOL     OW56614   0.839   5.616   3.337 -0.2414 -0.3954  0.7972
18207SOL    HW156615   0.828   5.675   3.411 -0.7555  3.3402 -2.0021
18207SOL    HW256616   0.924   5.638   3.300 -1.7261  1.0674 -2.1230
18208SOL     OW56617   3.343   6.534   6.554  0.2539  0.6661  0.0598
18208SOL    HW156618   3.382   6.606   6.604  0.3007 -0.1124  1.1986
18208SOL    HW256619   3.314   6.472   6.621  0.3055 -0.4245 -0.8958
18209SOL     OW56620   5.150   5.153   6.421 -0.2091  0.1435 -0.5455
18209SOL    HW156621   5.089   5.177   6.491  1.8710  0.3827  1.3110
18209SOL    HW256622   5.101   5.090   6.368 -1.0693 -2.2603  2.7378
18210SOL     OW56623   3.596   2.684   8.449 -0.1019 -0.2389  0.7732
18210SOL    HW156624   3.644   2.750   8.500 -0.7312  0.5806  0.3151
18210SOL    HW256625   3.529   2.652   8.509 -0.4773  0.3118  0.6483
18211SOL     OW56626   2.910   8.273   0.589 -0.2971  0.3279 -0.0420
18211SOL    HW156627   2.846   8.214   0.629 -0.3942 -0.4230 -1.2525
18211SOL    HW256628   2.910   8.249   0.496  2.2786 -0.2550  0.0130
18212SOL     OW56629   8.787   4.927   3.686 -0.3062 -0.1349  0.2123
18212SOL    HW156630   8.833   4.972   3.757 -1.0467 -1.6155  1.6986
18212SOL    HW256631   8.829   4.841   3.681 -1.2383 -0.5856 -0.1213
18213SOL     OW56632   1.064   6.500   4.127 -0.1040 -0.0405 -0.6946
18213SOL    HW156633   1.031   6.535   4.044  0.7277 -1.6832 -1.7772
18213SOL    HW256634   1.080   6.407   4.109  3.3726  0.2258  0.2050
18214SOL     OW56635   7.169   2.687   0.599 -0.3426 -0.0424 -0.3179
18214SOL    HW156636   7.153   2.758   0.660 -0.3933 -0.1730 -0.1779
18214SOL    HW256637   7.120   2.712   0.520 -1.3310 -0.4679  0.1319
18215SOL     OW56638   8.353   0.374   8.873 -0.5286  0.0442 -0.6762
18215SOL    HW156639   8.287   0.324   8.827  0.7473 -0.3719 -2.1522
18215SOL    HW256640   8.434   0.324   8.861  0.4673  1.6095 -0.7967
18216SOL     OW56641   3.356   8.647   7.551  0.2584  0.0581 -0.2781
18216SOL    HW156642   3.354   8.558   7.586  1.8817  0.7819  1.8575
18216SOL    HW256643   3.301   8.643   7.472 -0.7999 -2.4816  0.4903
18217SOL     OW56644   6.498   2.054   0.313  0.1113 -0.3514 -0.1827
18217SOL    HW156645   6.404   2.049   0.327  0.0936 -0.2697 -0.2647
18217SOL    HW256646   6.536   2.003   0.384  0.0681  0.8109  0.7041
18218SOL     OW56647   1.290   6.783   4.880  0.1082 -0.0035  0.2579
18218SOL    HW156648   1.310   6.716   4.814  0.5850 -0.2176  0.6132
18218SOL    HW256649   1.308   6.740   4.964  1.2929  0.8449  0.4653
18219SOL     OW56650   7.261   0.709   8.340 -0.5621 -0.0980 -0.4505
18219SOL    HW156651   7.349   0.680   8.313 -0.4982 -0.0446 -0.3018
18219SOL    HW256652   7.214   0.723   8.258  0.1951  1.8046 -0.5994
18220SOL     OW56653   7.176   3.606   0.107 -0.2529 -0.0672 -0.3347
18220SOL    HW156654   7.265   3.581   0.080 -0.4733  0.0109 -1.1259
18220SOL    HW256655   7.120   3.576   0.037 -1.1788 -2.3566  1.2537
18221SOL     OW56656   3.662   7.041   7.792 -0.0516 -0.1067  0.0152
18221SOL    HW156657   3.579   6.993   7.801  0.6135 -1.5021 -0.9056
18221SOL    HW256658   3.728   6.978   7.820  0.7770  0.7089 -0.0800
18222SOL     OW56659   6.589   2.191   3.937  0.1997 -0.2864  0.0908
18222SOL    HW156660   6.600   2.158   4.026 -1.0524  1.5644  1.0014
18222SOL    HW256661   6.661   2.254   3.926 -0.8154  1.0300  0.6303
18223SOL     OW56662   8.699   7.482   5.474 -0.2976  0.3646 -0.0766
18223SOL    HW156663   8.655   7.443   5.399 -0.0206 -1.1433  0.5095
18223SOL    HW256664   8.628   7.501   5.536 -0.3130 -0.5115  0.1884
18224SOL     OW56665   5.586   6.471   6.394  1.1151 -0.3411  0.1928
18224SOL    HW156666   5.622   6.421   6.320  0.7344  0.2090 -0.3708
18224SOL    HW256667   5.492   6.474   6.377  0.6260 -2.3865  2.0279
18225SOL     OW56668   4.526   4.963   6.505 -0.2728  0.0943 -0.0328
18225SOL    HW156669   4.571   5.047   6.506  0.6490 -0.3932  1.2060
18225SOL    HW256670   4.439   4.983   6.469  0.8177  1.0755 -2.2705
18226SOL     OW56671   6.558   2.484   7.533 -0.2464  1.0339 -0.1291
18226SOL    HW156672   6.535   2.392   7.548 -0.8834  1.1402 -0.4325
18226SOL    HW256673   6.536   2.527   7.616  0.2163  0.8879  0.0748
18227SOL     OW56674   7.627   0.466   5.223  0.5254  0.1135  0.4305
18227SOL    HW156675   7.718   0.489   5.243  0.9131 -1.2649  0.3847
18227SOL    HW256676   7.625   0.458   5.128 -0.1530  2.0434  0.2407
18228SOL     OW56677   6.666   4.044   0.307  0.2233 -0.3471  0.0816
18228SOL    HW156678   6.722   3.999   0.370 -0.2592 -1.9565 -0.5882
18228SOL    HW256679   6.577   4.024   0.334  0.0087 -1.0429 -1.0692
18229SOL     OW56680   2.771   8.638   8.476 -0.3754 -0.3638  0.0306
18229SOL    HW156681   2.803   8.681   8.555  0.4288  0.8178 -0.8954
18229SOL    HW256682   2.847   8.592   8.441  0.0790  1.4109 -1.5017
18230SOL     OW56683   5.141   2.474   7.804  0.0594  0.0646 -0.3793
18230SOL    HW156684   5.189   2.516   7.733 -0.7307  0.1479 -0.8685
18230SOL    HW256685   5.092   2.404   7.762  1.4957 -1.5058  0.4484
18231SOL     OW56686   2.777   3.100   8.209 -0.2947  0.3650  0.6015
18231SOL    HW156687   2.690   3.110   8.169  0.6589 -0.1418 -1.7360
18231SOL    HW256688   2.821   3.183   8.190 -0.2110  0.5973  1.7335
18232SOL     OW56689   3.109   6.768   4.026 -0.5131  0.3686 -0.6486
18232SOL    HW156690   3.168   6.838   4.000 -0.9273 -0.0032 -2.7480
18232SOL    HW256691   3.152   6.727   4.101  1.5620  0.5356 -1.6722
18233SOL     OW56692   3.646   0.049   4.960 -0.2255 -0.2324  0.5542
18233SOL    HW156693   3.573   0.081   4.907 -0.5555 -0.2292  1.0073
18233SOL    HW256694   3.654  -0.043   4.937  0.3283  0.0109 -0.2941
18234SOL     OW56695   0.166   2.334   1.883  0.3589 -0.0077 -0.5577
18234SOL    HW156696   0.162   2.274   1.957 -0.9848  0.9803  0.2032
18234SOL    HW256697   0.229   2.401   1.910  0.8332 -0.3206 -0.8568
18235SOL     OW56698   4.375   6.864   7.911 -0.0209 -0.3071  0.1114
18235SOL    HW156699   4.444   6.929   7.928  1.6249 -2.1614  0.8792
18235SOL    HW256700   4.354   6.875   7.818  1.6207  0.0177 -0.2533
18236SOL     OW56701   7.837   1.504   4.528  0.1312  0.1186 -0.4158
18236SOL    HW156702   7.808   1.560   4.600 -0.6551 -1.0144  0.1810
18236SOL    HW256703   7.758   1.456   4.502  0.8831 -1.0679 -0.5650
18237SOL     OW56704   4.769   6.926   2.407  0.4037 -0.0815  0.0020
18237SOL    HW156705   4.842   6.946   2.348  0.3580 -1.2240 -0.4709
18237SOL    HW256706   4.812   6.908   2.491  0.5633  0.4180  0.0320
18238SOL     OW56707   2.216   2.487   0.543  0.2780  0.2630 -0.2954
18238SOL    HW156708   2.234   2.578   0.518  0.8842  0.4496  0.7371
18238SOL    HW256709   2.194   2.493   0.636 -0.1789 -0.5937 -0.3451
18239SOL     OW56710   0.921   2.892   7.835  0.1831 -0.1417 -0.0152
18239SOL    HW156711   0.864   2.841   7.778  0.2360 -1.0097  0.7009
18239SOL    HW256712   0.986   2.931   7.776 -0.0178 -0.6876 -0.5976
18240SOL     OW56713   6.871   5.076   4.387  0.1419 -0.1837  0.2284
18240SOL    HW156714   6.898   5.088   4.296 -0.3360 -1.9404 -0.1871
18240SOL    HW256715   6.827   4.991   4.388  1.0578 -0.6999  2.3165
18241SOL     OW56716   3.043   4.603   7.905 -0.1451 -0.3067 -0.4361
18241SOL    HW156717   2.989   4.567   7.976  0.3702 -1.4213 -0.5857
18241SOL    HW256718   3.116   4.645   7.950 -1.5310  1.9712 -0.1955
18242SOL     OW56719   2.201   1.180   2.528  0.0418  0.3290  0.2089
18242SOL    HW156720   2.266   1.202   2.595 -1.1271  0.3925  1.3575
18242SOL    HW256721   2.121   1.162   2.577 -0.9241  0.6282 -1.1972
18243SOL     OW56722   8.530   8.519   3.493 -0.3577 -0.1682 -0.0379
18243SOL    HW156723   8.543   8.537   3.400 -1.1351 -1.5926 -0.4585
18243SOL    HW256724   8.438   8.492   3.500 -0.2406 -0.3326  1.0889
18244SOL     OW56725   4.265   6.733   2.192  0.1951  0.0652  0.0241
18244SOL    HW156726   4.200   6.757   2.258  0.3463  1.5525 -0.3296
18244SOL    HW256727   4.285   6.641   2.209 -0.5638  0.1360  1.3575
18245SOL     OW56728   2.055   5.315   7.784  0.5227 -0.6118  0.6075
18245SOL    HW156729   2.021   5.405   7.783 -0.8105 -1.0590  1.8364
18245SOL    HW256730   2.149   5.325   7.801  0.5887  0.5815 -0.3276
18246SOL     OW56731   2.216   5.845   5.798  0.1640 -0.2129 -0.6310
18246SOL    HW156732   2.256   5.790   5.865 -1.0735 -0.3240  0.0446
18246SOL    HW256733   2.156   5.787   5.752 -0.7249  0.4043 -0.2921
18247SOL     OW56734   1.012   6.634   2.153 -0.2303  0.3715  0.0137
18247SOL    HW156735   1.066   6.698   2.106  0.3925  0.9783  1.4823
18247SOL    HW256736   1.075   6.575   2.194 -0.7256  0.2955  0.6781
18248SOL     OW56737   0.120   8.564   8.695  0.5843  0.6737 -0.3847
18248SOL    HW156738   0.193   8.526   8.744 -0.3588 -1.2955 -0.4152
18248SOL    HW256739   0.159   8.637   8.647  2.0495  1.0649  1.3217
18249SOL     OW56740   7.531   8.628   1.163 -0.1105  0.1623 -0.1266
18249SOL    HW156741   7.509   8.581   1.083  0.7033 -0.6556  0.1191
18249SOL    HW256742   7.599   8.576   1.204  0.1629  1.0772  0.6233
18250SOL     OW56743   4.326   5.670   6.227  0.2064 -0.4122 -0.0972
18250SOL    HW156744   4.346   5.580   6.254 -0.6060  0.1169  2.6222
18250SOL    HW256745   4.254   5.696   6.284  1.0242  2.2795 -0.1623
18251SOL     OW56746   4.846   7.688   4.118  0.5562  0.0609 -0.2014
18251SOL    HW156747   4.853   7.642   4.034  0.5363 -1.6412  0.6814
18251SOL    HW256748   4.917   7.752   4.117  0.1304  0.5580 -1.7795
18252SOL     OW56749   4.332   0.883   1.682  0.3822 -0.1642  0.7549
18252SOL    HW156750   4.299   0.800   1.647  1.3958 -0.1340 -0.3539
18252SOL    HW256751   4.427   0.873   1.684  0.7258  1.6730 -1.4915
18253SOL     OW56752   5.533   1.353   0.995  0.5771  0.1505  0.3553
18253SOL    HW156753   5.527   1.422   1.061  0.2165  0.6901 -0.2266
18253SOL    HW256754   5.590   1.391   0.927  1.4855 -0.6467  0.6549
18254SOL     OW56755   0.241   6.232   7.102 -0.2239  0.1977  0.6504
18254SOL    HW156756   0.196   6.177   7.166  0.7621  1.0619  2.1296
18254SOL    HW256757   0.175   6.297   7.077 -1.2757 -1.3319 -0.8247
18255SOL     OW56758   7.607   4.455   1.218 -0.2483 -0.1353  0.2294
18255SOL    HW156759   7.556   4.535   1.208 -1.3741 -0.8411  0.2593
18255SOL    HW256760   7.696   4.480   1.190 -0.7630  0.8998 -0.5338
18256SOL     OW56761   4.569   4.558   1.352 -0.1405 -0.4303  0.3665
18256SOL    HW156762   4.553   4.652   1.344 -0.7924 -0.1871  3.3110
18256SOL    HW256763   4.569   4.525   1.262 -1.2465  2.1551 -0.6575
18257SOL     OW56764   8.268   5.249   0.146  0.0488 -0.1128 -0.6887
18257SOL    HW156765   8.284   5.203   0.228  0.7414  1.2132 -0.0319
18257SOL    HW256766   8.189   5.301   0.163 -0.8898 -1.2403 -1.5107
18258SOL     OW56767   0.758   7.540   3.692  0.4993 -0.5165 -0.3583
18258SOL    HW156768   0.763   7.632   3.666 -1.5465 -0.5778 -1.1286
18258SOL    HW256769   0.793   7.538   3.781  0.2731  1.0611 -0.2100
18259SOL     OW56770   8.884   0.046   6.897  0.5147  0.3411 -0.6422
18259SOL    HW156771   8.840   0.082   6.820 -1.6399 -2.0046 -0.6278
18259SOL    HW256772   8.879   0.116   6.962 -3.1289  0.3436 -0.7397
18260SOL     OW56773   2.806   8.309   8.450  0.6185  0.2019  0.0383
18260SOL    HW156774   2.864   8.374   8.490  4.6605 -3.0614  0.0692
18260SOL    HW256775   2.838   8.301   8.360  0.1200 -1.5912 -0.0089
18261SOL     OW56776   3.969   1.631   3.379 -0.0925  0.4723 -0.4698
18261SOL    HW156777   4.036   1.656   3.315  0.9776 -1.8435 -0.3661
18261SOL    HW256778   4.003   1.662   3.462  0.9641 -0.7671 -0.4047
18262SOL     OW56779   4.928   3.157   3.557 -0.2441  0.2615  0.1182
18262SOL    HW156780   4.886   3.088   3.505 -1.3823  0.6035  0.5576
18262SOL    HW256781   4.933   3.231   3.497  1.4294 -0.3180 -0.5130
18263SOL     OW56782   3.844   7.653   0.098  0.6564 -0.0125  0.2400
18263SOL    HW156783   3.895   7.721   0.055 -0.2912  0.7763  0.3188
18263SOL    HW256784   3.869   7.572   0.055  0.7388  0.5882 -0.8581
18264SOL     OW56785   6.872   3.033   0.486  0.6867 -0.7382  0.0488
18264SOL    HW156786   6.919   3.116   0.487  0.3786 -0.5635  0.4028
18264SOL    HW256787   6.795   3.051   0.431  2.2011 -1.6945 -2.5864
18265SOL     OW56788   5.630   7.955   5.143  0.2564  0.1379 -0.7762
18265SOL    HW156789   5.574   8.025   5.178  2.8853  1.6576  0.7160
18265SOL    HW256790   5.652   7.984   5.054  1.3458  1.3124 -0.1608
18266SOL     OW56791   4.428   7.812   0.898  0.1401  0.0547  0.2404
18266SOL    HW156792   4.432   7.866   0.819 -0.2531  0.7099  0.6612
18266SOL    HW256793   4.340   7.775   0.898  0.3114 -0.3518  0.1055
18267SOL     OW56794   2.618   5.052   4.446 -0.0377 -0.5764 -0.0853
18267SOL    HW156795   2.619   5.095   4.532  0.4954  0.3326 -0.5311
18267SOL    HW256796   2.696   5.084   4.402 -0.7335 -0.3848 -1.2241
18268SOL     OW56797   2.389   6.346   6.452  0.3634 -1.1630 -0.1162
18268SOL    HW156798   2.435   6.401   6.388  0.5534  0.7869  1.5766
18268SOL    HW256799   2.297   6.353   6.427  0.3021  0.5499  0.4364
18269SOL     OW56800   5.269   7.244   8.581 -0.3725  0.2198  0.3952
18269SOL    HW156801   5.297   7.297   8.656 -0.4647  0.6750  0.1140
18269SOL    HW256802   5.210   7.178   8.619 -1.4017  1.2022  0.5720
18270SOL     OW56803   2.065   6.466   2.547  0.3901  0.1577  0.3679
18270SOL    HW156804   2.026   6.552   2.530  1.9128  0.8095 -0.0006
18270SOL    HW256805   2.125   6.481   2.620  2.6027  0.0404 -1.3427
18271SOL     OW56806   6.258   2.200   2.899  0.1806 -0.3018  0.0717
18271SOL    HW156807   6.205   2.181   2.977  1.8658  1.5758  1.8047
18271SOL    HW256808   6.349   2.192   2.930  0.9241 -0.4970 -2.0084
18272SOL     OW56809   5.800   4.963   0.056 -0.2132  0.6773  0.0757
18272SOL    HW156810   5.848   4.992   0.134 -0.8233  1.1655  0.2797
18272SOL    HW256811   5.840   5.013  -0.016 -1.6681  2.6000  0.5055
18273SOL     OW56812   0.472   8.103   6.655 -0.0515  0.4696  0.1831
18273SOL    HW156813   0.388   8.089   6.700  0.5922 -0.3960  1.1597
18273SOL    HW256814   0.488   8.197   6.664 -0.5873  0.5285  0.5820
18274SOL     OW56815   3.665   6.623   6.224 -0.2538 -0.2126 -0.1254
18274SOL    HW156816   3.682   6.535   6.256 -1.4732 -0.7351 -0.8488
18274SOL    HW256817   3.603   6.611   6.152 -0.3699  1.2225 -0.2938
18275SOL     OW56818   7.267   8.550   3.817  0.2062 -0.1458 -0.3043
18275SOL    HW156819   7.189   8.604   3.830  0.4058 -0.0635  0.6164
18275SOL    HW256820   7.275   8.542   3.722 -0.7718  0.0638 -0.4175
18276SOL     OW56821   2.896   4.244   3.724 -0.6756  0.5161  0.4525
18276SOL    HW156822   2.858   4.331   3.734 -1.9697 -0.0147  0.3198
18276SOL    HW256823   2.915   4.237   3.630 -3.8172 -0.5713 -0.2426
18277SOL     OW56824   5.719   2.261   3.272  0.0443  0.1880  0.1976
18277SOL    HW156825   5.727   2.286   3.364  0.9422  0.0162  0.1679
18277SOL    HW256826   5.792   2.304   3.228 -0.9464  1.0986 -0.6301
18278SOL     OW56827   2.720   4.247   6.310 -0.7574  0.3170  0.1111
18278SOL    HW156828   2.796   4.286   6.354 -0.3611 -0.7077  0.3536
18278SOL    HW256829   2.756   4.177   6.256 -1.3473  0.9709 -1.1808
18279SOL     OW56830   3.697   1.269   2.319  0.5747 -0.3518  0.7774
18279SOL    HW156831   3.695   1.356   2.278 -1.7742 -0.6990 -0.0110
18279SOL    HW256832   3.785   1.237   2.304  1.7020  2.1125  1.5865
18280SOL     OW56833   4.724   7.186   2.573  0.3596 -0.3206 -0.0139
18280SOL    HW156834   4.668   7.253   2.536  0.5438 -0.6276 -0.8675
18280SOL    HW256835   4.799   7.180   2.514  0.7959 -0.6324  0.5496
18281SOL     OW56836   2.696   0.317   6.501  0.0699  0.1639  0.6279
18281SOL    HW156837   2.633   0.293   6.434 -0.2621 -0.0544  1.0106
18281SOL    HW256838   2.708   0.411   6.490  0.1463  0.0987  0.1571
18282SOL     OW56839   4.787   1.754   3.456 -0.1894 -0.1875 -0.2455
18282SOL    HW156840   4.735   1.834   3.465  0.1848 -0.1901  3.0378
18282SOL    HW256841   4.876   1.781   3.481 -0.1842 -1.7065  1.5743
18283SOL     OW56842   4.614   6.617   8.250  0.7148  0.0531 -0.4823
18283SOL    HW156843   4.632   6.689   8.189  0.4735  0.0874 -0.5143
18283SOL    HW256844   4.670   6.545   8.220  0.8241  0.1699 -0.5577
18284SOL     OW56845   6.899   0.381   7.711  0.0940 -0.1097 -0.5430
18284SOL    HW156846   6.939   0.399   7.626  0.1427  2.1397 -0.1257
18284SOL    HW256847   6.865   0.466   7.739 -0.1491 -0.8492  1.5700
18285SOL     OW56848   2.595   7.898   4.454  0.6433 -0.1941  0.4227
18285SOL    HW156849   2.687   7.923   4.458  1.2341 -2.1782  0.5963
18285SOL    HW256850   2.574   7.901   4.360  0.3433  1.8746  0.5071
18286SOL     OW56851   6.812   1.313   8.194  0.1541  0.2140 -0.1285
18286SOL    HW156852   6.841   1.404   8.201  3.6425 -0.8573  2.4961
18286SOL    HW256853   6.733   1.309   8.247  0.9567  1.4363  1.2316
18287SOL     OW56854   6.969   3.935   1.172 -0.3547 -0.3300 -0.2315
18287SOL    HW156855   6.962   4.030   1.170  0.9251 -0.2321 -0.6021
18287SOL    HW256856   6.895   3.907   1.226 -1.4007  0.7836 -1.0455
18288SOL     OW56857   8.756   4.524   4.526  0.5346 -0.3174  0.3047
18288SOL    HW156858   8.680   4.467   4.526 -1.0564  1.6386 -1.4559
18288SOL    HW256859   8.734   4.594   4.588  1.1683 -0.0485  0.2423
18289SOL     OW56860   2.568   5.671   5.795 -0.1924 -0.1544 -0.1664
18289SOL    HW156861   2.569   5.740   5.861 -1.1356 -0.6101  0.3413
18289SOL    HW256862   2.572   5.590   5.845  1.4246 -0.4874 -0.7774
18290SOL     OW56863   0.698   2.292   1.409  0.3705  0.0715  0.6026
18290SOL    HW156864   0.728   2.206   1.380 -2.4308 -0.6345 -0.5600
18290SOL    HW256865   0.696   2.345   1.329  0.8317  0.8247  1.0803
18291SOL     OW56866   4.037   6.063   2.926  0.5728 -0.5151  0.7616
18291SOL    HW156867   3.977   6.001   2.968 -0.2818  0.4213  0.9665
18291SOL    HW256868   3.981   6.118   2.871  0.6632  2.3342  3.1934
18292SOL     OW56869   7.773   3.344   8.606  0.0928 -0.3950  1.1843
18292SOL    HW156870   7.857   3.345   8.559 -0.0200 -2.2495  0.8567
18292SOL    HW256871   7.712   3.388   8.547  0.6576  0.2730  1.0794
18293SOL     OW56872   3.527   2.434   6.498 -0.1752  0.3045  0.0681
18293SOL    HW156873   3.504   2.525   6.516  2.4123  1.0148  0.2650
18293SOL    HW256874   3.552   2.433   6.406 -1.4706 -0.5531 -0.3065
18294SOL     OW56875   1.133   8.736   4.661  0.3077  0.0760 -0.4739
18294SOL    HW156876   1.086   8.753   4.579 -1.4165 -0.9050  0.2531
18294SOL    HW256877   1.220   8.708   4.633  0.6063  2.1404 -1.8649
18295SOL     OW56878   3.041   4.619   1.448 -0.4769  0.0695  0.5128
18295SOL    HW156879   2.993   4.648   1.371 -0.0233 -1.9945 -0.6272
18295SOL    HW256880   3.060   4.527   1.431  0.0378 -0.3302  2.9065
18296SOL     OW56881   2.756   4.773   8.628  0.4953  0.1774  0.1057
18296SOL    HW156882   2.745   4.832   8.553 -0.6785 -1.1947 -0.8601
18296SOL    HW256883   2.726   4.824   8.703  0.9193  1.3080 -0.4719
18297SOL     OW56884   8.181   4.451   6.201  0.0955 -0.0326 -0.1854
18297SOL    HW156885   8.194   4.537   6.240  0.4937  0.3873 -1.2162
18297SOL    HW256886   8.092   4.426   6.229  0.5259  0.0281  1.3581
18298SOL     OW56887   1.342   7.366   4.728  0.3776  0.2927  0.3577
18298SOL    HW156888   1.330   7.332   4.816  1.7454  0.1485  0.5103
18298SOL    HW256889   1.378   7.293   4.678 -0.9347  0.1923 -0.5000
18299SOL     OW56890   3.510   1.113   8.571  0.5601  0.0967 -0.2080
18299SOL    HW156891   3.541   1.028   8.538  1.0429  0.0723  0.2969
18299SOL    HW256892   3.588   1.153   8.610  0.1872  0.4914  0.1324
18300SOL     OW56893   8.266   7.818   7.170  0.3130 -0.5916  0.0024
18300SOL    HW156894   8.284   7.728   7.143  0.8766 -0.7971  0.9795
18300SOL    HW256895   8.274   7.816   7.266  1.1207  0.6587 -0.0158
18301SOL     OW56896   8.683   7.830   5.333  0.1324 -0.1063  0.0124
18301SOL    HW156897   8.725   7.895   5.276  1.8996 -0.5310  0.7724
18301SOL    HW256898   8.742   7.821   5.407 -2.3522  0.7904  2.2358
18302SOL     OW56899   4.026   5.589   5.686  0.0768 -0.2606  0.7638
18302SOL    HW156900   3.951   5.596   5.745 -1.5034 -0.5705 -1.0956
18302SOL    HW256901   4.048   5.679   5.664  0.3001 -0.1649  1.3636
18303SOL     OW56902   8.842   2.797   6.653  0.3661  0.1876 -0.4823
18303SOL    HW156903   8.773   2.849   6.695 -0.3403 -1.4751  0.5029
18303SOL    HW256904   8.797   2.751   6.582 -0.1853 -2.6912  1.5699
18304SOL     OW56905   0.104   0.230   1.549  0.7584 -0.4830 -0.3592
18304SOL    HW156906   0.127   0.169   1.619 -1.2833 -0.9152  0.0092
18304SOL    HW256907   0.165   0.303   1.559  1.0868 -0.9569  1.3174
18305SOL     OW56908   8.209   8.161   8.078 -0.3186  0.2104  0.3762
18305SOL    HW156909   8.148   8.091   8.100  0.1857 -0.4127 -0.1580
18305SOL    HW256910   8.294   8.128   8.106  0.0918  0.1039 -0.9277
18306SOL     OW56911   4.124   0.477   8.230 -1.0053 -0.3022 -0.0572
18306SOL    HW156912   4.182   0.413   8.189 -1.4211 -0.0725 -1.0601
18306SOL    HW256913   4.176   0.557   8.235 -0.6401 -0.5811  0.7619
18307SOL     OW56914   7.908   1.210   6.788 -0.4569 -0.6178  0.2203
18307SOL    HW156915   7.881   1.197   6.879 -0.1982 -1.7434  0.1577
18307SOL    HW256916   7.827   1.221   6.739 -0.5487  1.5409  0.7768
18308SOL     OW56917   7.612   8.268   2.122 -0.3289  0.0254  0.3437
18308SOL    HW156918   7.643   8.200   2.181  0.8595 -1.1105 -1.4718
18308SOL    HW256919   7.542   8.227   2.072 -0.9514  0.7772  0.5872
18309SOL     OW56920   0.568   7.618   2.886 -0.1044 -0.8609 -0.3948
18309SOL    HW156921   0.539   7.611   2.977 -0.4826  1.5527 -0.2670
18309SOL    HW256922   0.611   7.535   2.868 -1.5656 -2.0833  1.4194
18310SOL     OW56923   3.070   1.336   1.693 -0.5926 -0.1020  0.1838
18310SOL    HW156924   3.009   1.345   1.766  0.4827  2.6459  0.8421
18310SOL    HW256925   3.019   1.365   1.617 -0.7735  0.0535  0.3626
18311SOL     OW56926   8.036   0.751   8.638  0.4010 -0.3360 -0.8123
18311SOL    HW156927   7.953   0.713   8.667  0.1768 -0.9409 -2.1860
18311SOL    HW256928   8.098   0.677   8.639  0.6598 -0.1203 -0.8143
18312SOL     OW56929   4.522   6.890   7.101  0.4568  0.3862  0.2007
18312SOL    HW156930   4.583   6.870   7.173  0.2724  0.3577  0.3509
18312SOL    HW256931   4.506   6.984   7.110 -1.7616 -0.0764  1.9618
18313SOL     OW56932   6.657   4.629   1.536  0.1094  0.2695 -0.2342
18313SOL    HW156933   6.595   4.701   1.520 -0.8410 -0.4580  0.0941
18313SOL    HW256934   6.724   4.668   1.592 -0.4150  0.9055 -0.0277
18314SOL     OW56935   8.884   6.024   4.042  0.2010 -0.3690 -0.6562
18314SOL    HW156936   8.863   6.108   4.001 -1.4002 -0.2621  0.2764
18314SOL    HW256937   8.937   6.048   4.119 -0.8553 -0.1074  0.0178
18315SOL     OW56938   0.221   0.464   6.610 -0.5718 -0.0519 -0.3760
18315SOL    HW156939   0.281   0.529   6.646 -3.0600  1.3084  1.5951
18315SOL    HW256940   0.173   0.512   6.542 -0.2007 -0.8519 -1.2364
18316SOL     OW56941   2.276   8.407   7.984 -0.7288  0.4688  0.5340
18316SOL    HW156942   2.343   8.471   7.958  2.6695 -3.1583 -0.7848
18316SOL    HW256943   2.295   8.388   8.076  0.8117 -1.1554 -0.0547
18317SOL     OW56944   7.692   1.797   0.871  0.2922 -0.2900 -0.3740
18317SOL    HW156945   7.784   1.815   0.851 -0.6038  1.1768 -3.9663
18317SOL    HW256946   7.663   1.736   0.804 -1.1532 -1.7068  1.4029
18318SOL     OW56947   6.614   8.198   2.356  0.2416  0.0283  0.1592
18318SOL    HW156948   6.661   8.257   2.415  0.5339 -0.9806  0.9650
18318SOL    HW256949   6.535   8.174   2.404 -0.7833  1.1271 -0.8904
18319SOL     OW56950   8.226   3.651   2.463  0.3398  0.2260  0.3104
18319SOL    HW156951   8.173   3.609   2.396  1.5038 -1.7406  0.5210
18319SOL    HW256952   8.305   3.679   2.417 -0.2219  1.8585  0.2704
18320SOL     OW56953   0.240   0.568   4.087 -0.1402 -0.3633 -0.8033
18320SOL    HW156954   0.254   0.659   4.112 -0.1566 -0.1437 -1.5672
18320SOL    HW256955   0.320   0.522   4.115 -0.8267 -0.4688  1.1472
18321SOL     OW56956   6.547   3.105   3.612 -0.2771  0.0637 -0.1631
18321SOL    HW156957   6.460   3.108   3.571 -0.6018 -0.6165  0.4521
18321SOL    HW256958   6.564   3.195   3.639 -1.3508 -0.0230  0.8414
18322SOL     OW56959   1.466   2.692   6.540 -0.0879  0.0028  0.0644
18322SOL    HW156960   1.485   2.706   6.633 -0.9758 -0.9788  0.4111
18322SOL    HW256961   1.377   2.656   6.539 -0.3474  0.6576 -1.2182
18323SOL     OW56962   6.224   2.536   1.943 -0.1341 -0.5495  0.1121
18323SOL    HW156963   6.241   2.590   1.866  0.1557 -0.0387  0.5272
18323SOL    HW256964   6.219   2.446   1.909 -1.5112 -0.1806 -0.7153
18324SOL     OW56965   8.683   3.790   6.198 -0.0041  0.2302  0.4850
18324SOL    HW156966   8.682   3.708   6.147  1.0852  0.9921 -0.8499
18324SOL    HW256967   8.680   3.761   6.289  0.4141 -1.3167  0.0516
18325SOL     OW56968   1.718   5.487   0.291  0.4678  0.9322  0.2052
18325SOL    HW156969   1.685   5.534   0.215 -2.0386  0.7689  1.0973
18325SOL    HW256970   1.703   5.395   0.270 -0.7341  0.9106  1.0607
18326SOL     OW56971   1.289   1.787   1.150 -0.7840  0.1088 -0.0891
18326SOL    HW156972   1.365   1.833   1.187 -0.4425  1.5560 -2.4336
18326SOL    HW256973   1.323   1.700   1.127 -1.4877 -1.7104  4.5669
18327SOL     OW56974   5.997   2.636   4.257 -0.8961  0.2953  0.7214
18327SOL    HW156975   5.980   2.695   4.184 -1.0885 -0.1585  0.3931
18327SOL    HW256976   5.967   2.550   4.227  0.9409 -0.3361  0.5288
18328SOL     OW56977   0.544   1.747   3.979 -0.1469 -0.6582 -0.0645
18328SOL    HW156978   0.586   1.825   3.944 -0.0760 -0.6708 -0.0088
18328SOL    HW256979   0.544   1.685   3.906 -0.6961 -0.4191 -0.2756
18329SOL     OW56980   6.610   0.896   8.470  0.1965  0.2061  0.1107
18329SOL    HW156981   6.566   0.811   8.478  0.8886 -0.4034 -1.7974
18329SOL    HW256982   6.610   0.913   8.376  2.5053  0.9670  0.1962
18330SOL     OW56983   8.870   5.685   1.917 -0.9294 -0.6139  0.3486
18330SOL    HW156984   8.902   5.769   1.951  0.6081 -0.8000 -0.5434
18330SOL    HW256985   8.775   5.690   1.926 -0.7285  0.1462  2.7894
18331SOL     OW56986   2.317   6.182   2.405 -0.4795 -0.0015 -0.6512
18331SOL    HW156987   2.312   6.202   2.311  0.4944 -0.5528 -0.8318
18331SOL    HW256988   2.409   6.161   2.420 -0.9726 -1.9279  0.0109
18332SOL     OW56989   5.226   0.197   4.836  0.3618 -0.6829 -0.8046
18332SOL    HW156990   5.252   0.107   4.852  0.2478 -0.8042 -1.2870
18332SOL    HW256991   5.130   0.195   4.836  0.3280 -0.2963  0.6499
18333SOL     OW56992   5.621   1.014   1.454 -0.1549  0.5257 -0.5857
18333SOL    HW156993   5.615   1.109   1.452  1.2030  0.6222 -0.7557
18333SOL    HW256994   5.692   0.995   1.515  0.9009 -0.2913 -1.9954
18334SOL     OW56995   2.304   4.488   5.232 -0.1586 -0.0841 -0.4886
18334SOL    HW156996   2.236   4.422   5.243 -0.2399  0.2507  1.5219
18334SOL    HW256997   2.279   4.559   5.292  1.2813  0.6041 -0.6438
18335SOL     OW56998   1.031   0.345   2.594  0.4530  0.6824  0.4176
18335SOL    HW156999   0.973   0.287   2.644  2.6611 -1.2821  0.8271
18335SOL    HW257000   1.080   0.393   2.661 -0.2102  1.8871  0.0702
18336SOL     OW57001   4.251   1.886   0.902  0.7582  0.4979  0.1936
18336SOL    HW157002   4.160   1.893   0.930 -0.0108 -0.0688 -2.0005
18336SOL    HW257003   4.279   1.799   0.931  0.0544  0.0136 -0.5499
18337SOL     OW57004   5.194   1.578   3.616  0.4990 -0.2087  0.6490
18337SOL    HW157005   5.128   1.515   3.589 -0.8148  0.8994  1.1192
18337SOL    HW257006   5.198   1.570   3.711  0.1937  0.5067  0.7342
18338SOL     OW57007   6.796   1.631   1.346 -0.0639  0.3507  0.0296
18338SOL    HW157008   6.891   1.624   1.352 -0.1466 -1.3399 -0.0457
18338SOL    HW257009   6.779   1.724   1.331  1.4705  0.9264  1.5698
18339SOL     OW57010   7.269   6.623   3.024  0.0498  0.1934 -0.7210
18339SOL    HW157011   7.206   6.552   3.035  0.7016 -0.4354 -0.9418
18339SOL    HW257012   7.262   6.675   3.105  0.7885 -1.1267  0.2384
18340SOL     OW57013   1.831   8.702   6.495  0.7751 -0.2570 -0.0101
18340SOL    HW157014   1.865   8.766   6.557  2.3615 -1.4091  0.3885
18340SOL    HW257015   1.739   8.726   6.483  0.5523  0.3415  2.3635
18341SOL     OW57016   5.502   2.941   0.581  0.0426  0.4414  0.5249
18341SOL    HW157017   5.461   3.006   0.524  0.1017 -0.0670 -0.1220
18341SOL    HW257018   5.561   2.893   0.522  0.3727  0.1373  1.1019
18342SOL     OW57019   2.784   0.393   6.981 -0.6446  0.5635  0.1865
18342SOL    HW157020   2.799   0.450   6.905  1.4160 -1.2796 -0.9140
18342SOL    HW257021   2.828   0.438   7.054  1.0398  0.4034 -0.6818
18343SOL     OW57022   5.117   0.029   6.751 -0.2763 -0.0925 -0.5277
18343SOL    HW157023   5.114  -0.064   6.726 -0.6861  0.1523 -1.4353
18343SOL    HW257024   5.031   0.047   6.788  0.1096 -0.2873  0.5154
18344SOL     OW57025   6.133   0.473   0.731 -0.2989  0.2207 -1.2631
18344SOL    HW157026   6.222   0.478   0.765 -0.3547  0.2116 -1.1165
18344SOL    HW257027   6.080   0.446   0.805 -0.3478 -0.2841 -1.4749
18345SOL     OW57028   3.116   6.983   1.132 -0.0019  0.2388  0.6575
18345SOL    HW157029   3.123   6.958   1.040  1.2532 -0.2547  0.8678
18345SOL    HW257030   3.044   7.046   1.134 -0.1340  0.1622 -0.6398
18346SOL     OW57031   2.697   5.611   7.324 -0.1041  0.5132 -0.1923
18346SOL    HW157032   2.683   5.516   7.327  0.2197  0.4502 -0.5513
18346SOL    HW257033   2.789   5.622   7.347 -0.4479  0.8368  1.0756
18347SOL     OW57034   1.624   3.539   1.597 -0.1678 -0.3881 -0.4340
18347SOL    HW157035   1.545   3.504   1.640  0.1212 -0.3408  0.1464
18347SOL    HW257036   1.658   3.603   1.659  1.0728 -1.3644 -0.0696
18348SOL     OW57037   6.402   4.642   5.991  0.1710  0.0903  0.5831
18348SOL    HW157038   6.450   4.624   5.909  0.0406  1.2738  0.2346
18348SOL    HW257039   6.462   4.694   6.043 -1.1450  2.7516 -0.4020
18349SOL     OW57040   1.522   1.977   3.008 -0.1915 -0.3808 -0.0406
18349SOL    HW157041   1.583   1.941   2.943  0.4494  2.1404 -0.9473
18349SOL    HW257042   1.440   1.930   2.992  0.4534 -1.0977 -1.4362
18350SOL     OW57043   3.258   8.011   4.674  0.2528 -0.3865  0.6416
18350SOL    HW157044   3.180   7.956   4.685  0.2954 -0.8643 -1.1566
18350SOL    HW257045   3.226   8.100   4.677 -0.1801 -0.5573  1.1497
18351SOL     OW57046   7.658   4.911   3.877 -0.0899 -0.3311 -0.0177
18351SOL    HW157047   7.748   4.942   3.880 -0.1250 -0.3110  0.9458
18351SOL    HW257048   7.613   4.957   3.947 -1.3479  1.1215 -1.6777
18352SOL     OW57049   7.230   6.226   3.220  0.3572 -0.0602 -0.1798
18352SOL    HW157050   7.175   6.194   3.292 -1.9721  2.0019 -0.8786
18352SOL    HW257051   7.304   6.267   3.264  0.7469 -1.7838  0.8683
18353SOL     OW57052   8.405   1.486   1.259 -0.0542  0.9230 -0.4296
18353SOL    HW157053   8.338   1.554   1.262  0.2762  1.2314  0.0780
18353SOL    HW257054   8.356   1.405   1.276 -0.0781  1.3274  1.7911
18354SOL     OW57055   3.488   6.805   2.912  0.0249 -0.5267  0.1753
18354SOL    HW157056   3.555   6.739   2.932 -0.3781 -2.0545 -2.8897
18354SOL    HW257057   3.527   6.857   2.841 -0.6883  0.9066  0.8024
18355SOL     OW57058   0.765   2.720   7.097  0.4302 -0.2224 -0.2356
18355SOL    HW157059   0.671   2.737   7.099  0.5547  0.5550 -0.7520
18355SOL    HW257060   0.801   2.772   7.169  0.7023  1.0532 -1.2689
18356SOL     OW57061   7.723   6.079   8.033  0.4908  0.1832 -0.7449
18356SOL    HW157062   7.688   6.151   7.981 -1.2209 -0.3728 -0.4310
18356SOL    HW257063   7.743   6.011   7.969 -0.1788  0.0557 -0.8224
18357SOL     OW57064   1.394   6.315   4.250  0.2215 -0.3084 -0.5446
18357SOL    HW157065   1.393   6.325   4.155  0.4139 -2.4283 -0.8129
18357SOL    HW257066   1.486   6.325   4.275  0.4405 -1.4545 -0.8302
18358SOL     OW57067   2.017   1.837   5.421 -0.4195  0.2805  0.3047
18358SOL    HW157068   2.057   1.920   5.446  2.7783  0.0584 -3.1130
18358SOL    HW257069   2.047   1.775   5.488  1.1737  1.0603  0.3778
18359SOL     OW57070   0.619   2.780   5.591  0.3738  0.1149 -1.0084
18359SOL    HW157071   0.537   2.825   5.571  1.1702  1.2260 -1.9008
18359SOL    HW257072   0.682   2.850   5.604  0.7011 -0.6233  2.2294
18360SOL     OW57073   4.783   1.891   5.146 -0.6916  0.2855 -0.1512
18360SOL    HW157074   4.802   1.803   5.176  0.1130  0.0999 -1.1723
18360SOL    HW257075   4.699   1.913   5.187  0.0309 -0.1942  1.6712
18361SOL     OW57076   1.959   3.308   5.526  0.1293 -0.2441 -0.1737
18361SOL    HW157077   1.958   3.277   5.435 -0.9378  0.4484 -0.4103
18361SOL    HW257078   1.869   3.299   5.555  0.5439 -0.8878  0.9906
18362SOL     OW57079   8.083   7.570   7.748 -0.2109  0.3892 -0.7805
18362SOL    HW157080   8.104   7.617   7.829 -1.1003 -0.3192 -0.1183
18362SOL    HW257081   8.125   7.484   7.759 -1.6072 -0.2783 -0.3597
18363SOL     OW57082   2.165   5.453   8.850 -0.1657 -0.6405 -0.1201
18363SOL    HW157083   2.232   5.385   8.846  1.3804  0.8679 -1.7267
18363SOL    HW257084   2.214   5.535   8.841 -2.1515  0.5662 -0.4652
18364SOL     OW57085   4.154   4.530   1.411 -0.0132  0.0324  0.1152
18364SOL    HW157086   4.100   4.455   1.438 -0.6670  0.3031 -0.3995
18364SOL    HW257087   4.241   4.493   1.398  0.0961 -0.3001  1.5706
18365SOL     OW57088   0.273   0.630   5.115 -0.5247 -0.4502 -0.3629
18365SOL    HW157089   0.219   0.668   5.183  0.2834 -3.1241  1.9356
18365SOL    HW257090   0.211   0.588   5.055 -1.1275 -0.5177  0.3037
18366SOL     OW57091   4.019   7.978   1.297 -0.3939 -0.9078 -0.5460
18366SOL    HW157092   4.110   7.990   1.324 -0.8108  1.2421  0.1148
18366SOL    HW257093   3.992   7.895   1.337  0.1144  0.3632  2.7414
18367SOL     OW57094   2.057   5.215   7.534  0.2607  0.5197 -0.2807
18367SOL    HW157095   2.063   5.288   7.473 -1.5594  1.5922  0.7144
18367SOL    HW257096   2.050   5.256   7.621 -0.8082 -0.7945  0.3001
18368SOL     OW57097   5.434   1.410   8.278  0.0405  0.1474 -0.1109
18368SOL    HW157098   5.435   1.351   8.203  1.5453  3.2330 -2.7518
18368SOL    HW257099   5.516   1.391   8.324  0.2455 -0.1607 -0.5926
18369SOL     OW57100   6.060   4.596   0.265 -0.0707  0.2620 -0.0331
18369SOL    HW157101   6.129   4.547   0.220  0.6261  0.8848  0.3375
18369SOL    HW257102   6.010   4.637   0.195 -1.3059 -1.7354 -0.4278
18370SOL     OW57103   7.618   2.593   2.127 -0.0483  0.3540 -0.0233
18370SOL    HW157104   7.676   2.532   2.082  0.4484  1.9350 -1.6247
18370SOL    HW257105   7.536   2.546   2.138  0.8192 -1.1386  0.2503
18371SOL     OW57106   2.128   2.964   3.605  0.4629 -0.4597 -0.6398
18371SOL    HW157107   2.092   2.933   3.688 -1.5096  1.7024 -0.5931
18371SOL    HW257108   2.129   3.060   3.613  1.4734 -0.2447 -2.6139
18372SOL     OW57109   8.398   7.387   7.753 -0.0910 -0.5556 -0.5670
18372SOL    HW157110   8.455   7.462   7.766 -1.1774  0.4938 -1.5550
18372SOL    HW257111   8.418   7.357   7.664 -1.5776  0.3291 -1.2412
18373SOL     OW57112   4.556   0.264   0.885 -0.0644  0.4515 -0.0143
18373SOL    HW157113   4.578   0.357   0.883 -1.4093  0.7888 -0.6280
18373SOL    HW257114   4.564   0.236   0.793  0.3127 -0.0426  0.1625
18374SOL     OW57115   0.971   7.508   8.661  0.1630  0.2095 -0.3139
18374SOL    HW157116   1.044   7.502   8.599  1.3729 -0.1359  1.0796
18374SOL    HW257117   0.971   7.423   8.706 -0.3695  0.6202  0.4943
18375SOL     OW57118   8.810   2.958   2.844 -0.1654 -0.4319  0.2817
18375SOL    HW157119   8.815   3.053   2.837  0.6549 -0.4012  1.1156
18375SOL    HW257120   8.798   2.929   2.753  0.7904  0.4056 -0.1396
18376SOL     OW57121   7.658   8.755   5.146 -0.4354 -0.5886 -0.7358
18376SOL    HW157122   7.715   8.794   5.213 -0.0039  0.2392 -1.5718
18376SOL    HW257123   7.705   8.769   5.064 -1.4943 -0.5879 -1.3529
18377SOL     OW57124   1.522   5.173   1.905  0.0477  0.0096 -0.4344
18377SOL    HW157125   1.444   5.126   1.877 -0.2736 -0.2359  0.8222
18377SOL    HW257126   1.592   5.107   1.904 -0.5334 -0.7144  1.9483
18378SOL     OW57127   6.951   8.320   1.668  0.1632 -0.5374  0.4843
18378SOL    HW157128   6.963   8.231   1.636 -0.6661 -0.6246  0.4155
18378SOL    HW257129   7.017   8.372   1.621  1.1049 -1.2167  1.0092
18379SOL     OW57130   8.067   7.331   6.170 -0.4469 -0.3268 -0.2614
18379SOL    HW157131   8.101   7.241   6.173  0.6294  0.0632 -0.3748
18379SOL    HW257132   7.994   7.331   6.232  1.2346 -0.5989  1.8397
18380SOL     OW57133   5.634   6.689   0.640  0.1767  0.1445 -0.2560
18380SOL    HW157134   5.554   6.697   0.589 -0.1181  0.1768  0.2078
18380SOL    HW257135   5.627   6.756   0.708  0.9880  0.7226 -0.7198
18381SOL     OW57136   4.878   0.293   5.774  0.5806  0.1064  0.2789
18381SOL    HW157137   4.868   0.215   5.828  0.3663 -0.4032 -0.4798
18381SOL    HW257138   4.812   0.282   5.705  2.0760 -0.1701 -1.1541
18382SOL     OW57139   0.728   5.188   0.760  0.5681  0.0485  0.5447
18382SOL    HW157140   0.784   5.144   0.695 -0.1621  1.6836 -1.3082
18382SOL    HW257141   0.639   5.161   0.737  0.2242  1.3698  0.2380
18383SOL     OW57142   2.833   2.807   6.624 -0.0697 -0.3825 -0.3863
18383SOL    HW157143   2.806   2.729   6.673 -0.0351 -0.0296  0.2007
18383SOL    HW257144   2.755   2.833   6.575 -0.0301 -0.8905 -0.7247
18384SOL     OW57145   5.899   5.737   2.900 -0.2519 -0.1775 -0.0003
18384SOL    HW157146   5.805   5.736   2.919 -0.0899 -0.3782  0.8578
18384SOL    HW257147   5.930   5.819   2.939  0.2750 -1.0935  1.6026
18385SOL     OW57148   2.405   0.509   6.717 -0.1963 -0.5820 -0.1140
18385SOL    HW157149   2.355   0.466   6.647 -2.6104  1.0964  0.4422
18385SOL    HW257150   2.430   0.594   6.680  2.1876 -1.2842 -0.2921
18386SOL     OW57151   6.455   1.846   5.739 -0.0573 -0.3299 -0.1021
18386SOL    HW157152   6.424   1.768   5.695  0.2318  0.2529 -1.3740
18386SOL    HW257153   6.435   1.918   5.679 -0.8768  0.6746  1.2917
18387SOL     OW57154   0.285   0.157   2.457 -0.6607  0.0396 -0.0821
18387SOL    HW157155   0.208   0.192   2.502  0.6441  1.2757  1.2724
18387SOL    HW257156   0.339   0.120   2.526  1.7919  2.7003 -0.3640
18388SOL     OW57157   6.521   6.666   7.581  0.5123  0.0936 -0.2283
18388SOL    HW157158   6.503   6.608   7.656  0.5759  0.0174 -0.2720
18388SOL    HW257159   6.607   6.704   7.600 -0.4745  1.9090  0.9098
18389SOL     OW57160   8.621   7.788   0.412  0.2992  0.2139 -0.1383
18389SOL    HW157161   8.597   7.748   0.496  0.3416  0.5631  0.0425
18389SOL    HW257162   8.690   7.732   0.377  0.8463  0.5221  0.4427
18390SOL     OW57163   3.157   8.445   4.993  0.1358 -0.9436  0.2287
18390SOL    HW157164   3.114   8.498   4.927  0.9435  0.1693  0.5692
18390SOL    HW257165   3.108   8.462   5.074  1.0194  0.1394  0.5650
18391SOL     OW57166   7.233   3.144   8.436  0.5858 -0.3972 -0.4486
18391SOL    HW157167   7.317   3.179   8.405  1.5384 -2.9556 -0.9628
18391SOL    HW257168   7.192   3.109   8.357 -1.2574  1.2374 -0.2835
18392SOL     OW57169   2.923   2.568   1.287  0.5237 -0.5084  0.1684
18392SOL    HW157170   2.932   2.473   1.285  0.5458 -0.4954 -1.4074
18392SOL    HW257171   2.829   2.583   1.293  0.3350 -0.6673 -1.7028
18393SOL     OW57172   8.350   4.088   1.828 -0.1820  0.1479  0.0475
18393SOL    HW157173   8.367   4.071   1.921  3.1193 -0.9307 -0.6005
18393SOL    HW257174   8.292   4.163   1.827  0.1027  0.5197  2.9875
18394SOL     OW57175   6.055   6.256   3.105 -0.1311 -0.3392 -0.3400
18394SOL    HW157176   5.986   6.300   3.154  1.3267  1.5973  0.1002
18394SOL    HW257177   6.086   6.322   3.043  2.2480 -0.6183  0.4541
18395SOL     OW57178   3.049   5.153   6.284 -0.7664 -0.1783 -0.2193
18395SOL    HW157179   2.968   5.193   6.249 -2.3569 -1.9184  1.2890
18395SOL    HW257180   3.032   5.059   6.282 -0.0586 -0.4782  2.9910
18396SOL     OW57181   5.524   5.083   2.206  0.3500 -0.2291  1.0023
18396SOL    HW157182   5.589   5.102   2.274 -1.8563  0.0928  3.1756
18396SOL    HW257183   5.485   5.000   2.234  0.0954 -0.6403 -0.5010
18397SOL     OW57184   1.938   3.739   3.822 -0.2037  0.8045 -0.2462
18397SOL    HW157185   1.850   3.705   3.835 -0.3572  1.1118 -0.4866
18397SOL    HW257186   1.982   3.674   3.768  0.5536 -0.6846  2.0236
18398SOL     OW57187   5.396   7.100   8.887  0.1497  0.4015 -0.2353
18398SOL    HW157188   5.440   7.055   8.959  0.1031 -0.0432 -0.4882
18398SOL    HW257189   5.428   7.190   8.893  0.3649  0.3007  0.1676
18399SOL     OW57190   6.838   8.894   2.573 -0.0852  0.0409  0.0040
18399SOL    HW157191   6.758   8.899   2.521  0.4178 -1.4107 -0.9879
18399SOL    HW257192   6.886   8.974   2.550 -1.3065  1.0318  0.7728
18400SOL     OW57193   1.227   2.497   0.396 -0.1560 -0.0847  0.2859
18400SOL    HW157194   1.283   2.436   0.444  0.1754 -0.4387 -0.5343
18400SOL    HW257195   1.194   2.557   0.463  0.6929 -0.2673  0.8821
18401SOL     OW57196   7.219   5.431   1.498 -0.1239 -0.9530 -0.4894
18401SOL    HW157197   7.135   5.390   1.517 -0.5101  0.0290  0.0036
18401SOL    HW257198   7.217   5.446   1.403  0.7732 -3.6164 -1.0128
18402SOL     OW57199   6.767   3.776   2.690 -0.3111 -0.0987  1.1123
18402SOL    HW157200   6.836   3.744   2.747  1.7832 -0.9306 -1.6601
18402SOL    HW257201   6.756   3.707   2.624 -2.7460  0.6886  0.5719
18403SOL     OW57202   5.139   1.421   5.586  0.5170  0.0307 -0.5922
18403SOL    HW157203   5.162   1.398   5.676 -0.1452  0.0200 -0.4163
18403SOL    HW257204   5.050   1.387   5.575  0.1189  1.1124 -0.8388
18404SOL     OW57205   0.940   0.960   0.798  0.1947 -0.2014 -0.6419
18404SOL    HW157206   0.930   0.894   0.866  0.0556  1.0402  0.5851
18404SOL    HW257207   1.024   1.001   0.816 -0.3741  0.9363 -0.4749
18405SOL     OW57208   1.766   8.301   0.987  0.4265  0.4096  0.5108
18405SOL    HW157209   1.756   8.390   0.953  0.4243 -0.5574 -2.2260
18405SOL    HW257210   1.743   8.244   0.914  2.2475 -1.8811  1.5903
18406SOL     OW57211   2.332   4.451   7.921 -0.0743  0.5009 -0.3018
18406SOL    HW157212   2.334   4.532   7.870 -1.0623  0.6742 -0.0935
18406SOL    HW257213   2.368   4.385   7.863 -0.3624  0.8649 -0.8993
18407SOL     OW57214   5.745   7.655   4.908  0.2022 -0.4342 -0.1439
18407SOL    HW157215   5.827   7.696   4.934 -0.2693 -0.7223  1.9360
18407SOL    HW257216   5.688   7.728   4.883  0.4109 -0.0779  0.4216
18408SOL     OW57217   5.861   4.737   4.422  0.1885 -0.0610  0.4337
18408SOL    HW157218   5.826   4.786   4.496  3.8475  1.8045  1.1658
18408SOL    HW257219   5.906   4.662   4.461  0.0420 -0.4654 -0.1459
18409SOL     OW57220   6.632   0.970   3.792 -0.2932 -0.0596  0.3660
18409SOL    HW157221   6.558   1.029   3.800 -0.5179 -0.3582  0.5021
18409SOL    HW257222   6.625   0.911   3.867 -0.3212 -0.5359  0.0008
18410SOL     OW57223   5.673   1.244   7.845  0.1736  0.4946  0.3745
18410SOL    HW157224   5.758   1.224   7.807  1.0234  1.4813  1.6774
18410SOL    HW257225   5.620   1.275   7.771  0.9925  0.0444 -0.4152
18411SOL     OW57226   1.314   6.557   0.590 -0.3036 -0.5679  0.8396
18411SOL    HW157227   1.235   6.548   0.536  0.4875 -0.8275 -0.3047
18411SOL    HW257228   1.282   6.596   0.672 -1.4950  0.0882  0.0975
18412SOL     OW57229   1.205   7.097   0.481 -0.6115  0.5671 -0.5802
18412SOL    HW157230   1.214   7.017   0.532 -2.5368  1.0934  0.7032
18412SOL    HW257231   1.202   7.067   0.390 -1.7829 -0.8908 -0.1063
18413SOL     OW57232   5.371   2.716   5.872 -0.0556  0.5519  0.2323
18413SOL    HW157233   5.345   2.625   5.858  0.4319  0.2598  1.1580
18413SOL    HW257234   5.463   2.711   5.899 -0.3422  1.2158  1.3927
18414SOL     OW57235   3.513   6.092   6.194 -0.2003  0.2091 -0.2407
18414SOL    HW157236   3.471   6.058   6.115  0.0907  1.4480 -0.9546
18414SOL    HW257237   3.590   6.036   6.206 -0.0408  0.2355 -1.0644
18415SOL     OW57238   7.462   7.954   6.595 -0.2200 -0.0606  0.4192
18415SOL    HW157239   7.447   7.903   6.516  0.4231  1.8016 -0.9734
18415SOL    HW257240   7.377   7.955   6.640 -0.8639 -0.3166 -0.7613
18416SOL     OW57241   1.110   6.883   3.266 -0.1376  0.2770 -0.6314
18416SOL    HW157242   1.038   6.887   3.328  0.7091 -0.1897  0.4021
18416SOL    HW257243   1.176   6.828   3.308  0.5211  0.0802 -1.8706
18417SOL     OW57244   7.874   5.778   2.378 -0.3813 -0.1356  0.1918
18417SOL    HW157245   7.917   5.766   2.462 -0.8572  0.6740  0.5654
18417SOL    HW257246   7.807   5.709   2.375 -0.5309 -0.0132  0.5980
18418SOL     OW57247   6.376   4.511   6.551 -0.0236 -0.3473  0.5856
18418SOL    HW157248   6.468   4.495   6.572  0.1202 -0.3644 -0.0410
18418SOL    HW257249   6.355   4.592   6.597  0.4367 -0.0980  0.3618
18419SOL     OW57250   7.401   7.536   3.158 -0.2956  0.3313  0.2827
18419SOL    HW157251   7.352   7.485   3.222 -0.4046 -1.3183 -1.0589
18419SOL    HW257252   7.380   7.496   3.074  0.9235  1.5744 -0.6573
18420SOL     OW57253   6.743   0.653   2.820  0.4485 -0.0836 -0.1657
18420SOL    HW157254   6.705   0.610   2.897  0.7463 -3.4340 -1.7416
18420SOL    HW257255   6.835   0.625   2.820  0.7034  0.6912 -1.2031
18421SOL     OW57256   6.478   3.521   4.245 -0.2674 -0.7499 -0.2309
18421SOL    HW157257   6.383   3.517   4.240 -0.1906 -1.1233 -2.8440
18421SOL    HW257258   6.498   3.614   4.257 -0.9405 -0.6447  0.0827
18422SOL     OW57259   8.412   5.422   3.327  0.3645 -0.1197 -0.2683
18422SOL    HW157260   8.438   5.507   3.362 -0.3612 -0.3895  0.9941
18422SOL    HW257261   8.356   5.443   3.251 -0.6834  0.5669  0.6647
18423SOL     OW57262   7.322   1.499   6.870  0.1080 -0.3926  0.5440
18423SOL    HW157263   7.295   1.429   6.811 -0.5539  0.3729 -0.0811
18423SOL    HW257264   7.268   1.487   6.948  1.3149 -1.6941  1.2320
18424SOL     OW57265   5.345   5.241   7.755 -0.9228  0.0231 -0.0672
18424SOL    HW157266   5.344   5.268   7.664 -1.3182 -0.9724 -0.3677
18424SOL    HW257267   5.436   5.219   7.773 -0.6223  1.3724  0.1411
18425SOL     OW57268   0.415   1.710   7.937 -0.7337  0.1918  0.2663
18425SOL    HW157269   0.454   1.695   8.023 -1.5292  0.8526  0.7590
18425SOL    HW257270   0.344   1.646   7.931  0.5671 -1.2384 -0.7682
18426SOL     OW57271   5.397   1.035   3.850  0.2524  0.3516  0.1847
18426SOL    HW157272   5.379   1.083   3.769  0.5290  0.2350  0.0507
18426SOL    HW257273   5.487   1.003   3.839 -0.8137 -2.5606 -0.9681
18427SOL     OW57274   2.799   0.227   0.878 -0.1166  0.1503 -0.1010
18427SOL    HW157275   2.843   0.212   0.794 -0.5300 -0.8893 -0.1431
18427SOL    HW257276   2.866   0.207   0.944 -0.2201 -0.4365 -0.1722
18428SOL     OW57277   4.674   4.932   4.447 -0.0231 -0.5426 -0.3357
18428SOL    HW157278   4.580   4.923   4.464 -0.9789  2.7056 -2.6955
18428SOL    HW257279   4.692   5.025   4.461  2.4037 -0.7017 -1.7821
18429SOL     OW57280   2.610   8.164   3.418  0.4833 -0.1353 -0.0222
18429SOL    HW157281   2.588   8.187   3.328 -0.7640 -2.9347 -0.5525
18429SOL    HW257282   2.705   8.174   3.423  0.3214  2.5449 -0.7945
18430SOL     OW57283   6.038   0.152   4.855  0.6515 -0.0668 -0.6737
18430SOL    HW157284   6.132   0.135   4.862  0.7316  0.4641 -0.4154
18430SOL    HW257285   6.015   0.195   4.938  0.1008 -0.5583 -0.5595
18431SOL     OW57286   1.628   7.965   4.464  0.6607  0.3356  0.0542
18431SOL    HW157287   1.651   7.901   4.531 -1.4763 -0.9213 -0.3271
18431SOL    HW257288   1.616   8.047   4.512 -0.5100 -0.4709  1.2040
18432SOL     OW57289   7.230   4.398   3.939  0.3447  0.1744 -0.2586
18432SOL    HW157290   7.245   4.438   4.025  2.6801 -0.1516 -0.4485
18432SOL    HW257291   7.155   4.339   3.953 -0.6899  1.6978  0.9687
18433SOL     OW57292   7.665   2.628   1.273 -0.1041 -0.1559 -0.0950
18433SOL    HW157293   7.664   2.697   1.340 -1.0635  0.4507 -0.7150
18433SOL    HW257294   7.637   2.672   1.193  2.5318 -0.4887 -1.3071
18434SOL     OW57295   2.569   7.503   7.821  0.0669 -0.0024 -0.3048
18434SOL    HW157296   2.495   7.557   7.794 -0.0483  0.9839  1.8218
18434SOL    HW257297   2.628   7.564   7.867  1.1125 -1.2078  0.0120
18435SOL     OW57298   6.543   7.615   6.865 -0.0181  0.1954 -0.2628
18435SOL    HW157299   6.595   7.621   6.785 -2.3115 -1.6753 -2.0405
18435SOL    HW257300   6.474   7.552   6.845 -2.1778  1.4737  2.3802
18436SOL     OW57301   7.737   6.949   6.469 -0.2771 -0.0695  0.3044
18436SOL    HW157302   7.660   6.982   6.422  0.2028 -0.6414 -0.9186
18436SOL    HW257303   7.703   6.925   6.556 -1.4268 -0.0697 -0.1242
18437SOL     OW57304   5.305   4.246   1.338 -0.7125  0.5047  0.2130
18437SOL    HW157305   5.325   4.222   1.247  2.7776  0.2265  0.8946
18437SOL    HW257306   5.292   4.162   1.382  0.8628  0.3805  0.5216
18438SOL     OW57307   7.513   2.426   3.707  0.3400 -0.0515 -0.2221
18438SOL    HW157308   7.551   2.461   3.627  1.6701  2.0393  1.2361
18438SOL    HW257309   7.435   2.480   3.722 -0.2140 -0.7976 -0.3909
18439SOL     OW57310   4.750   7.549   4.409 -0.4277 -0.0327 -0.3837
18439SOL    HW157311   4.731   7.628   4.458 -0.0165 -0.4747  0.5199
18439SOL    HW257312   4.800   7.579   4.333  0.3372  0.5129  0.3134
18440SOL     OW57313   8.393   7.250   1.796  0.2545 -0.5449  0.3020
18440SOL    HW157314   8.373   7.329   1.745 -0.7955 -0.8762  0.1613
18440SOL    HW257315   8.487   7.240   1.788  0.6165  1.4154  1.3825
18441SOL     OW57316   2.502   3.826   1.324 -0.3669  0.2847  0.5538
18441SOL    HW157317   2.561   3.819   1.249  2.0294 -1.0672  2.4137
18441SOL    HW257318   2.440   3.754   1.313  0.5659 -0.5075  0.3325
18442SOL     OW57319   3.732   4.249   7.291  0.0245  0.0775 -0.1758
18442SOL    HW157320   3.734   4.156   7.313 -1.2320  0.4445  1.7637
18442SOL    HW257321   3.807   4.287   7.337  0.8629 -0.0078 -1.4048
18443SOL     OW57322   5.713   2.365   0.101  0.3475  0.1363  0.0123
18443SOL    HW157323   5.624   2.375   0.069  0.6398  0.5607 -0.7067
18443SOL    HW257324   5.715   2.414   0.184 -0.7515 -2.0246  1.3927
18444SOL     OW57325   0.272   1.245   5.162  0.5726 -0.1964 -0.5136
18444SOL    HW157326   0.329   1.304   5.211  0.5356  0.4523 -1.2250
18444SOL    HW257327   0.216   1.205   5.228  2.8040 -2.0058  0.4383
18445SOL     OW57328   1.878   8.202   6.795  0.7761 -0.2066 -0.0881
18445SOL    HW157329   1.819   8.190   6.869 -0.5305  0.0042 -1.0591
18445SOL    HW257330   1.854   8.133   6.733  1.0612  0.3260 -0.8119
18446SOL     OW57331   6.111   7.158   2.769 -0.3407 -0.1514  0.2663
18446SOL    HW157332   6.124   7.253   2.771  0.0432 -0.1944 -0.0374
18446SOL    HW257333   6.055   7.142   2.693 -0.1062 -0.2031  0.1049
18447SOL     OW57334   5.184   6.317   1.395  0.0419  0.5770  0.0036
18447SOL    HW157335   5.112   6.362   1.440  1.7227  3.2089  0.2506
18447SOL    HW257336   5.259   6.376   1.404  2.1468 -1.7986 -0.6956
18448SOL     OW57337   4.789   1.606   8.689  0.3226  0.4150  0.2208
18448SOL    HW157338   4.865   1.663   8.694 -0.0246  1.0347 -1.2738
18448SOL    HW257339   4.816   1.534   8.633 -0.0451  0.3930  0.0689
18449SOL     OW57340   1.570   0.720   0.336  0.4818 -0.1253 -0.3160
18449SOL    HW157341   1.616   0.670   0.268  0.3120  0.4911 -0.8894
18449SOL    HW257342   1.592   0.674   0.418 -0.4944 -1.7586 -0.9131
18450SOL     OW57343   6.322   4.757   3.468  0.3887  0.2831  0.6391
18450SOL    HW157344   6.242   4.793   3.430  1.5667  1.3042 -1.0260
18450SOL    HW257345   6.298   4.733   3.557 -1.6501  0.9400  0.3176
18451SOL     OW57346   5.658   1.821   6.031  0.5289  0.8449 -0.1997
18451SOL    HW157347   5.733   1.832   5.974  2.2932 -0.1082  1.7747
18451SOL    HW257348   5.696   1.804   6.118 -1.9101 -1.2329  0.6191
18452SOL     OW57349   2.297   6.875   1.287 -0.4329  0.4372  0.6035
18452SOL    HW157350   2.217   6.879   1.234  1.1890  0.3118 -1.9810
18452SOL    HW257351   2.306   6.783   1.310  1.8774 -0.7668 -4.0762
18453SOL     OW57352   0.101   7.361   6.403  0.5710  0.3187  0.3748
18453SOL    HW157353   0.147   7.431   6.358 -1.3005  2.4801  1.6346
18453SOL    HW257354   0.148   7.349   6.485  0.1619  1.0289  0.7208
18454SOL     OW57355   6.600   4.065   1.296 -0.1820 -0.4047  0.1357
18454SOL    HW157356   6.633   4.117   1.370 -0.3882 -2.2739  1.6195
18454SOL    HW257357   6.644   3.981   1.304  1.2730 -0.0703 -3.0788
18455SOL     OW57358   5.648   4.931   0.787 -0.2496  0.2300  0.4177
18455SOL    HW157359   5.688   4.869   0.726 -1.2264 -1.5776  1.5306
18455SOL    HW257360   5.720   4.990   0.811  0.4431  0.2536 -1.4989
18456SOL     OW57361   6.197   0.143   6.806 -0.1487  0.2515  0.6706
18456SOL    HW157362   6.275   0.088   6.793  0.4178  0.7821  1.6336
18456SOL    HW257363   6.226   0.231   6.783 -1.4280  0.0116 -2.1631
18457SOL     OW57364   6.618   1.246   8.565 -0.5245  0.0319 -0.3494
18457SOL    HW157365   6.623   1.151   8.576 -1.2241 -0.2577 -2.2052
18457SOL    HW257366   6.572   1.259   8.482 -1.9783  2.0194  0.6661
18458SOL     OW57367   2.738   6.712   8.718  0.5841 -0.1661 -0.2869
18458SOL    HW157368   2.710   6.800   8.742  1.0700 -0.4558  1.4590
18458SOL    HW257369   2.804   6.725   8.650 -0.6999  0.6908 -1.4378
18459SOL     OW57370   3.501   7.637   2.683  0.3274  0.6547  0.1812
18459SOL    HW157371   3.487   7.552   2.641  0.6951  0.5391  0.2921
18459SOL    HW257372   3.594   7.656   2.670 -0.0744  1.8100 -1.2810
18460SOL     OW57373   4.497   0.759   4.595 -0.1659  0.1710  0.1511
18460SOL    HW157374   4.478   0.719   4.680 -1.1786 -0.0703 -0.1639
18460SOL    HW257375   4.431   0.828   4.586 -0.1333  0.1281 -0.4756
18461SOL     OW57376   5.983   6.578   6.084 -0.6120  0.4637  0.1280
18461SOL    HW157377   5.981   6.483   6.094  1.1220  0.4865  0.9800
18461SOL    HW257378   6.020   6.611   6.166 -0.4053  1.8145 -0.4747
18462SOL     OW57379   3.804   0.843   2.407 -0.0244 -0.0319  0.2203
18462SOL    HW157380   3.888   0.880   2.378 -0.1082 -0.2316 -0.2968
18462SOL    HW257381   3.768   0.910   2.466  0.6285 -0.0747  0.6850
18463SOL     OW57382   4.359   3.757   7.374 -0.1456 -0.5178  0.3967
18463SOL    HW157383   4.295   3.721   7.313 -0.3347 -0.3537  0.5001
18463SOL    HW257384   4.440   3.710   7.353  0.2106  0.6527 -1.0910
18464SOL     OW57385   0.253   4.283   5.521  0.0372  0.3627 -0.0634
18464SOL    HW157386   0.163   4.265   5.493  0.0628 -0.8846  0.6308
18464SOL    HW257387   0.264   4.377   5.504 -1.2367  0.4414 -0.5818
18465SOL     OW57388   2.753   8.104   6.313 -0.4293  0.0727 -0.3284
18465SOL    HW157389   2.785   8.020   6.279  0.3136  0.7076 -1.2535
18465SOL    HW257390   2.659   8.091   6.325 -0.1912 -1.1537  0.3495
18466SOL     OW57391   3.293   1.167   8.281 -0.0854  0.2909  0.3155
18466SOL    HW157392   3.321   1.232   8.217  0.6679 -1.3592 -1.1358
18466SOL    HW257393   3.364   1.102   8.282 -1.4830 -1.3202  0.4719
18467SOL     OW57394   4.328   1.283   2.354 -0.1865 -0.2759 -0.2912
18467SOL    HW157395   4.311   1.246   2.268  1.4647  0.3688 -0.9333
18467SOL    HW257396   4.353   1.207   2.408  1.7567 -0.3641 -1.2165
18468SOL     OW57397   4.689   8.097   5.223 -0.6600  0.1355  0.0059
18468SOL    HW157398   4.660   8.149   5.297  1.3057  0.9011  0.2978
18468SOL    HW257399   4.726   8.160   5.161  1.2780 -0.7937  0.1281
18469SOL     OW57400   8.037   5.703   6.949  0.6472 -0.1827  0.6567
18469SOL    HW157401   8.025   5.759   7.026  0.9518 -0.5377  0.9636
18469SOL    HW257402   8.000   5.619   6.975  0.3253 -0.1733  0.2462
18470SOL     OW57403   6.793   1.250   7.172  0.3258 -0.2118 -0.0244
18470SOL    HW157404   6.787   1.327   7.115 -2.1376 -0.2255  0.1001
18470SOL    HW257405   6.827   1.181   7.116  0.4037  0.4130 -0.7647
18471SOL     OW57406   0.026   7.401   0.785 -0.4991  0.3476 -0.2233
18471SOL    HW157407   0.054   7.322   0.830  1.1861  2.1666  2.1328
18471SOL    HW257408   0.107   7.443   0.757 -1.2394  2.1187  0.1932
18472SOL     OW57409   4.968   5.823   7.471  0.4842  0.1583 -0.1111
18472SOL    HW157410   4.879   5.809   7.442  0.8887  0.4763 -1.5641
18472SOL    HW257411   4.994   5.741   7.512 -0.1516 -0.2426 -0.5099
18473SOL     OW57412   2.364   6.870   3.950  0.2110  0.1394 -0.5026
18473SOL    HW157413   2.314   6.932   4.003  1.7129  2.2589 -1.4522
18473SOL    HW257414   2.302   6.799   3.931 -1.1381  0.6158  1.8098
18474SOL     OW57415   5.516   6.268   8.542 -0.8335 -0.4835 -0.3062
18474SOL    HW157416   5.562   6.336   8.492 -2.2867  1.4372  0.7999
18474SOL    HW257417   5.523   6.190   8.488  1.1747  0.4309 -1.5235
18475SOL     OW57418   8.690   3.008   2.570  0.2847  0.1888  0.4355
18475SOL    HW157419   8.702   2.934   2.510  1.3454 -0.9758  1.9868
18475SOL    HW257420   8.597   3.002   2.595  0.6249 -1.4379  1.4804
18476SOL     OW57421   8.534   8.351   8.391 -0.5076  0.0345  0.2843
18476SOL    HW157422   8.501   8.296   8.462 -2.2303 -2.6334 -2.3622
18476SOL    HW257423   8.616   8.310   8.365 -0.4940  0.2782 -0.0684
18477SOL     OW57424   4.581   7.202   3.609  0.3131 -0.0825 -0.1075
18477SOL    HW157425   4.669   7.238   3.603  0.1362  0.2946 -0.5113
18477SOL    HW257426   4.566   7.161   3.524 -1.1429  2.7966 -1.3972
18478SOL     OW57427   2.165   7.040   5.022 -0.0832  0.0825  0.0069
18478SOL    HW157428   2.097   6.973   5.019  0.4863 -0.4724 -1.1089
18478SOL    HW257429   2.141   7.102   4.953 -0.4572  0.8878  0.8498
18479SOL     OW57430   8.276   7.721   2.254 -0.2250  0.0676  0.0978
18479SOL    HW157431   8.261   7.785   2.183 -0.3999  0.9021  0.8626
18479SOL    HW257432   8.369   7.703   2.251 -0.4875 -1.2078 -1.4195
18480SOL     OW57433   4.635   4.433   7.317 -0.1904  0.5781 -0.1745
18480SOL    HW157434   4.713   4.483   7.337  0.2434  0.2505 -0.9909
18480SOL    HW257435   4.666   4.343   7.306 -1.0016  0.0116  1.6501
18481SOL     OW57436   4.878   7.071   4.215  0.6283 -0.5915  0.4013
18481SOL    HW157437   4.906   7.118   4.293 -1.2507 -0.2593  0.9334
18481SOL    HW257438   4.853   6.984   4.247  0.1073 -0.5461  0.1275
18482SOL     OW57439   2.431   5.370   7.592 -0.1930  0.2747  0.5349
18482SOL    HW157440   2.474   5.344   7.510 -1.6372  0.9299 -0.4573
18482SOL    HW257441   2.504   5.380   7.654  1.2284  2.0910 -1.2688
18483SOL     OW57442   6.624   2.805   0.308 -0.1774  0.0754 -0.0675
18483SOL    HW157443   6.599   2.719   0.274  0.3053  0.1026 -0.4947
18483SOL    HW257444   6.706   2.827   0.263  0.4871  0.1105  1.1076
18484SOL     OW57445   2.772   1.110   2.377  0.0163 -0.1400  0.1904
18484SOL    HW157446   2.762   1.153   2.461 -2.8560  0.7863 -0.5211
18484SOL    HW257447   2.733   1.023   2.390 -0.9222  0.2002 -0.3053
18485SOL     OW57448   5.050   7.409   5.694  0.2015  0.0531 -0.2865
18485SOL    HW157449   5.099   7.491   5.702  0.5665 -0.2853  1.2107
18485SOL    HW257450   5.101   7.346   5.744 -0.8687 -0.7196 -0.1444
18486SOL     OW57451   6.302   0.458   4.110  0.4945 -0.3211  0.4337
18486SOL    HW157452   6.313   0.416   4.195  1.7921 -1.0334 -0.0539
18486SOL    HW257453   6.369   0.417   4.054  0.4192  0.9352 -0.6227
18487SOL     OW57454   2.988   1.583   3.815  0.2560  0.4741 -0.1188
18487SOL    HW157455   2.949   1.542   3.892  0.7403 -0.2235 -0.2399
18487SOL    HW257456   3.023   1.510   3.763  0.2309  0.9567 -0.8370
18488SOL     OW57457   1.211   4.041   5.007  0.7251 -0.1978  0.4477
18488SOL    HW157458   1.146   4.042   4.937  2.3329  2.4666 -1.1692
18488SOL    HW257459   1.161   4.015   5.085 -1.8630 -0.0281 -1.0173
18489SOL     OW57460   7.182   2.573   4.311 -0.3625 -0.1620  0.2104
18489SOL    HW157461   7.266   2.577   4.358 -0.7381 -0.5558  0.9341
18489SOL    HW257462   7.150   2.664   4.312 -0.3182 -0.1474  0.6416
18490SOL     OW57463   4.053   3.467   8.068 -0.0552 -0.5143  0.4192
18490SOL    HW157464   4.100   3.433   7.992  0.3752  1.3099 -0.1896
18490SOL    HW257465   3.964   3.482   8.037  0.7377  2.8527 -0.7072
18491SOL     OW57466   0.081   3.131   3.197  0.2371 -0.0523  0.1822
18491SOL    HW157467  -0.015   3.130   3.205  0.2829  0.6200  0.9718
18491SOL    HW257468   0.099   3.070   3.125 -0.6506 -1.8812  1.4243
18492SOL     OW57469   2.768   3.817   0.554 -0.1831  0.3881 -0.3358
18492SOL    HW157470   2.755   3.750   0.487  0.3072  1.0318 -1.0851
18492SOL    HW257471   2.856   3.801   0.588 -0.6455 -0.3032  0.5934
18493SOL     OW57472   2.165   2.701   5.068 -0.1960 -0.2691 -1.0268
18493SOL    HW157473   2.172   2.606   5.060  3.0308 -0.4273  1.4243
18493SOL    HW257474   2.236   2.736   5.014 -0.0441  0.5950 -0.2982
18494SOL     OW57475   7.232   2.917   5.502  0.1189  0.5632 -0.2395
18494SOL    HW157476   7.181   2.863   5.441 -0.6835  0.0312  0.8811
18494SOL    HW257477   7.266   2.855   5.566  1.0773  1.1043 -0.2104
18495SOL     OW57478   1.247   4.652   6.310 -0.1794 -1.0485 -0.3187
18495SOL    HW157479   1.328   4.704   6.307 -0.3103 -0.8595 -2.1415
18495SOL    HW257480   1.195   4.692   6.380 -0.5181  1.7380 -1.9960
18496SOL     OW57481   1.066   6.243   8.814 -0.0282  0.1096 -0.4200
18496SOL    HW157482   1.115   6.282   8.742  0.4353  2.2689  0.9750
18496SOL    HW257483   1.058   6.313   8.879 -0.6917 -1.6298  1.5097
18497SOL     OW57484   0.146   5.007   4.254 -0.0498  0.1764 -0.2095
18497SOL    HW157485   0.195   4.968   4.182  1.1619 -1.7954  1.5531
18497SOL    HW257486   0.122   4.933   4.310 -2.0499  1.4869  0.7943
18498SOL     OW57487   2.976   8.397   5.829  0.1376 -1.2638 -0.2011
18498SOL    HW157488   2.910   8.410   5.898 -0.7989 -1.1225 -1.1022
18498SOL    HW257489   2.975   8.303   5.812  1.1944 -1.4773  0.7436
18499SOL     OW57490   6.168   2.412   4.841  0.3483  0.3318  0.4534
18499SOL    HW157491   6.110   2.407   4.917 -0.2706  1.8575  0.1091
18499SOL    HW257492   6.163   2.503   4.813  2.2740  0.3046 -0.1048
18500SOL     OW57493   4.683   5.028   3.840 -0.0336  0.5777 -0.6492
18500SOL    HW157494   4.597   4.997   3.869  0.7360 -1.7930 -0.7350
18500SOL    HW257495   4.737   5.026   3.918  0.6829 -0.8104 -1.1485
18501SOL     OW57496   3.058   3.264   6.105 -0.1204  0.1909  0.6278
18501SOL    HW157497   3.144   3.274   6.148 -0.5820  0.6255  1.4775
18501SOL    HW257498   3.070   3.190   6.046  1.0230  0.6226  0.2786
18502SOL     OW57499   5.860   2.479   1.716 -0.3107 -0.4589 -0.1150
18502SOL    HW157500   5.895   2.429   1.790 -2.0676 -1.1897  0.2780
18502SOL    HW257501   5.824   2.412   1.657  2.1255  0.0073 -2.3013
18503SOL     OW57502   3.907   3.820   5.782 -0.0674 -0.0091  0.1831
18503SOL    HW157503   3.901   3.849   5.873 -1.0122  0.3659  0.0148
18503SOL    HW257504   3.941   3.897   5.736  1.1967 -0.4559  0.3250
18504SOL     OW57505   7.014   0.966   0.118  0.0487 -0.6630  0.0954
18504SOL    HW157506   7.058   1.005   0.042  0.7050 -0.4206  0.5927
18504SOL    HW257507   7.086   0.933   0.173 -0.3935 -0.3401  0.8814
18505SOL     OW57508   7.283   7.306   0.034  0.0656  0.5463 -0.2496
18505SOL    HW157509   7.366   7.293  -0.011 -0.0251  1.2562 -0.6504
18505SOL    HW257510   7.218   7.265  -0.024 -0.0710  1.6040 -0.8732
18506SOL     OW57511   1.984   7.493   5.007  0.7298 -0.3214  0.5380
18506SOL    HW157512   1.990   7.406   5.046  0.0807 -1.4906 -1.7537
18506SOL    HW257513   1.891   7.514   5.008  0.6285 -0.5999 -0.7219
18507SOL     OW57514   3.111   8.372   6.864 -0.0313  0.2480  0.0491
18507SOL    HW157515   3.159   8.290   6.858  0.6930  0.5557  1.4120
18507SOL    HW257516   3.090   8.382   6.956  1.5663  2.5029  0.2633
18508SOL     OW57517   7.628   3.236   3.014  0.0986 -0.0338 -0.2204
18508SOL    HW157518   7.658   3.208   3.101  0.7402  0.8988 -0.1321
18508SOL    HW257519   7.703   3.219   2.956 -0.1487 -0.1790 -0.5003
18509SOL     OW57520   4.683   7.751   8.184  0.1385  0.0153  0.1063
18509SOL    HW157521   4.753   7.724   8.245  0.7199 -1.1786 -1.0279
18509SOL    HW257522   4.683   7.846   8.188  1.0638 -0.0057  0.9908
18510SOL     OW57523   6.659   6.329   6.157 -0.3136  0.0719 -0.1220
18510SOL    HW157524   6.693   6.329   6.068  0.0200 -0.4389  0.0011
18510SOL    HW257525   6.652   6.236   6.180  0.6628  0.1976  0.7715
18511SOL     OW57526   4.814   4.554   7.574  0.2086  0.2515  0.2346
18511SOL    HW157527   4.875   4.628   7.575 -0.3859  0.7610  2.0538
18511SOL    HW257528   4.863   4.483   7.617  0.6159 -0.3311 -1.1128
18512SOL     OW57529   6.660   1.600   3.473  0.4357  0.1678 -0.1571
18512SOL    HW157530   6.732   1.664   3.471  0.2301  0.3949 -1.8187
18512SOL    HW257531   6.595   1.636   3.413 -1.0292 -0.1068  1.2185
18513SOL     OW57532   8.056   8.883   7.957  0.2315  0.4015 -0.2221
18513SOL    HW157533   8.137   8.904   8.004 -0.1004  0.8503  0.1515
18513SOL    HW257534   7.986   8.915   8.014 -0.1726  1.2229 -1.1546
18514SOL     OW57535   6.869   3.944   0.490 -0.3227  0.6952  0.3839
18514SOL    HW157536   6.898   3.871   0.435  0.6729  0.7359  0.8498
18514SOL    HW257537   6.946   4.000   0.499 -0.9775  1.6290  0.3293
18515SOL     OW57538   2.202   2.018   3.265 -0.1397 -0.1658 -0.6710
18515SOL    HW157539   2.183   1.925   3.279  3.0585 -1.0757 -1.3398
18515SOL    HW257540   2.146   2.043   3.192 -1.8794 -1.2123  0.2503
18516SOL     OW57541   0.962   3.908   6.080 -0.0306  0.2937 -0.1109
18516SOL    HW157542   0.964   3.923   5.986  0.2307 -0.2906 -0.2046
18516SOL    HW257543   1.052   3.919   6.108 -0.4385  2.7672  0.4721
18517SOL     OW57544   7.912   5.011   5.893  0.5672 -0.2335 -0.1912
18517SOL    HW157545   7.850   4.951   5.933  2.3480 -1.2732  1.1989
18517SOL    HW257546   7.881   5.098   5.919  0.9139 -0.8137  2.5135
18518SOL     OW57547   2.521   3.559   4.992  0.1565 -0.1036  0.1925
18518SOL    HW157548   2.537   3.652   4.976  1.1240 -0.3155 -0.1417
18518SOL    HW257549   2.500   3.522   4.907 -0.3468 -0.1770  0.3429
18519SOL     OW57550   4.278   5.783   1.821 -0.1274 -0.3950  0.1537
18519SOL    HW157551   4.315   5.748   1.902 -0.3876 -1.2258 -0.0812
18519SOL    HW257552   4.214   5.848   1.851  2.6739  2.4535  0.5821
18520SOL     OW57553   1.248   0.320   4.790 -0.6712 -0.0728  0.5026
18520SOL    HW157554   1.293   0.236   4.803 -2.1224 -1.2397 -1.4406
18520SOL    HW257555   1.164   0.310   4.835 -0.8537  0.3095  0.2566
18521SOL     OW57556   6.645   2.862   6.344 -0.1962  0.4297 -0.0373
18521SOL    HW157557   6.600   2.793   6.296 -0.2961  1.4841 -1.5321
18521SOL    HW257558   6.578   2.927   6.362  0.2636  1.0222 -0.3938
18522SOL     OW57559   2.801   6.281   4.817  0.2977  0.6116 -0.6013
18522SOL    HW157560   2.834   6.329   4.893 -0.6685 -0.5818  0.6166
18522SOL    HW257561   2.707   6.302   4.814 -0.2508 -1.4360  0.2217
18523SOL     OW57562   7.000   7.093   3.759  0.1308  0.1706  0.1573
18523SOL    HW157563   7.091   7.119   3.765 -0.2369  1.1650  2.9831
18523SOL    HW257564   6.991   7.022   3.823 -1.4458  1.4726  1.4636
18524SOL     OW57565   3.798   1.840   2.938  0.1397  0.1776 -0.2617
18524SOL    HW157566   3.715   1.870   2.975  1.3856  1.6474  1.5502
18524SOL    HW257567   3.806   1.749   2.966 -1.1827 -0.2429 -1.1357
18525SOL     OW57568   0.714   1.707   6.125  0.1110 -0.0052 -0.0530
18525SOL    HW157569   0.736   1.772   6.059 -0.8091  0.9173  0.5324
18525SOL    HW257570   0.787   1.710   6.187  0.1380  0.3731 -0.1031
18526SOL     OW57571   0.178   5.686   8.218 -0.0991  0.7020 -0.0789
18526SOL    HW157572   0.093   5.698   8.175 -0.2921 -1.5265 -0.4287
18526SOL    HW257573   0.168   5.607   8.270  0.9616  1.9128  2.0853
18527SOL     OW57574   7.048   2.332   3.433 -0.0062  0.1986 -0.0920
18527SOL    HW157575   7.032   2.311   3.341 -0.8222  0.4959 -0.0188
18527SOL    HW257576   7.144   2.335   3.439  0.1437 -1.9595 -0.4344
18528SOL     OW57577   0.526   3.356   8.525  0.0860  0.0566  0.3001
18528SOL    HW157578   0.612   3.351   8.565  0.2207  0.7242  0.1059
18528SOL    HW257579   0.506   3.266   8.499 -1.1682 -1.0168  4.2254
18529SOL     OW57580   1.212   5.799   5.208 -0.3546  0.1654 -0.9637
18529SOL    HW157581   1.136   5.810   5.265  0.6047  0.2810  0.3292
18529SOL    HW257582   1.267   5.875   5.225  2.2757 -2.0697  1.6828
18530SOL     OW57583   5.502   7.751   3.475  0.4578  0.0797  0.1201
18530SOL    HW157584   5.595   7.776   3.475  0.0699  1.6175  0.0352
18530SOL    HW257585   5.465   7.799   3.549 -0.8976  2.0595 -1.7563
18531SOL     OW57586   3.866   7.494   6.213 -0.4721  0.5996 -0.0434
18531SOL    HW157587   3.953   7.489   6.172 -0.1708  2.0868  0.3609
18531SOL    HW257588   3.870   7.572   6.268 -1.1173 -0.8709  2.2530
18532SOL     OW57589   8.499   7.227   1.392 -0.2198  0.1531  0.5131
18532SOL    HW157590   8.468   7.256   1.306  0.6040 -0.7027 -0.1002
18532SOL    HW257591   8.580   7.277   1.407 -0.6624  0.7200  1.0661
18533SOL     OW57592   3.622   8.743   6.153 -0.4522  0.2009 -0.4547
18533SOL    HW157593   3.582   8.731   6.238  0.2172  3.7825  0.5459
18533SOL    HW257594   3.549   8.761   6.094 -0.7553  0.4405 -0.0108
18534SOL     OW57595   2.258   3.785   3.351 -0.0839 -0.4335 -0.2707
18534SOL    HW157596   2.251   3.691   3.333  0.0304 -0.7843  1.3629
18534SOL    HW257597   2.340   3.811   3.309 -0.0423 -1.1075 -0.6136
18535SOL     OW57598   6.092   1.829   5.053 -0.4245  0.1503  0.0374
18535SOL    HW157599   6.141   1.752   5.082  1.0116  0.6527 -0.9298
18535SOL    HW257600   6.153   1.875   4.995 -2.3865  0.3447 -1.9725
18536SOL     OW57601   1.120   3.529   3.438 -0.7073  0.4236  0.3284
18536SOL    HW157602   1.030   3.562   3.433 -0.6567  0.7217  1.2561
18536SOL    HW257603   1.172   3.605   3.462 -0.4847 -0.1494  1.7743
18537SOL     OW57604   7.158   7.571   2.461  0.0210 -0.1091 -0.2850
18537SOL    HW157605   7.206   7.492   2.439  0.2326  0.3455 -1.5096
18537SOL    HW257606   7.066   7.544   2.462  0.0402 -0.2291 -1.3669
18538SOL     OW57607   8.894   0.323   5.792 -0.1215  0.4770  0.3469
18538SOL    HW157608   8.980   0.284   5.806  0.2189  0.8628 -0.5705
18538SOL    HW257609   8.872   0.300   5.701  0.4270  2.9888 -0.4922
18539SOL     OW57610   3.487   2.406   1.608  0.2770  0.3396 -0.5563
18539SOL    HW157611   3.440   2.336   1.654  2.9732 -1.5131 -0.3552
18539SOL    HW257612   3.549   2.439   1.673  2.1972 -0.3497 -1.9399
18540SOL     OW57613   2.335   7.711   2.687 -0.1411  0.2242  0.1705
18540SOL    HW157614   2.411   7.659   2.660 -0.4239 -0.6833  1.0757
18540SOL    HW257615   2.284   7.722   2.606 -0.6456 -1.8913  0.1283
18541SOL     OW57616   2.364   6.318   3.505 -0.8029  0.0690 -0.1650
18541SOL    HW157617   2.306   6.269   3.564 -0.7011 -1.4705 -1.2983
18541SOL    HW257618   2.375   6.262   3.429  0.5924  1.1978 -0.8552
18542SOL     OW57619   3.488   5.975   6.463 -0.2282  0.0913 -0.7691
18542SOL    HW157620   3.440   5.896   6.483 -0.3624  0.3487 -0.0477
18542SOL    HW257621   3.454   6.004   6.378 -1.0035  0.0131 -0.4889
18543SOL     OW57622   6.676   7.369   3.428 -0.0225 -0.0987 -0.1527
18543SOL    HW157623   6.603   7.371   3.491  1.0345 -0.5365  1.1215
18543SOL    HW257624   6.672   7.281   3.391  0.9271 -0.7549  1.2453
18544SOL     OW57625   6.445   1.992   8.370 -0.4347  0.0300 -0.2198
18544SOL    HW157626   6.531   1.952   8.360 -0.9361 -0.9384 -0.8725
18544SOL    HW257627   6.406   1.946   8.444 -1.7438 -2.1558 -2.1220
18545SOL     OW57628   4.814   2.413   8.022 -0.1991 -0.7533 -0.6316
18545SOL    HW157629   4.849   2.339   7.972 -0.1669 -0.8696 -0.4372
18545SOL    HW257630   4.738   2.441   7.972  0.5755 -0.0376 -1.4599
18546SOL     OW57631   1.608   1.872   5.961  1.4433 -0.4889  0.2385
18546SOL    HW157632   1.633   1.964   5.948 -1.7810  0.4799 -0.0245
18546SOL    HW257633   1.590   1.840   5.873 -0.3882 -0.3643  0.5330
18547SOL     OW57634   8.547   1.483   8.865  0.1867 -0.4518  0.6655
18547SOL    HW157635   8.557   1.564   8.814  0.7353  0.1315  1.6549
18547SOL    HW257636   8.568   1.413   8.803  0.8603  0.2362  0.0886
18548SOL     OW57637   3.944   3.145   5.341  0.0610  0.0611 -0.2256
18548SOL    HW157638   3.917   3.064   5.385 -0.8774  0.0821 -0.7499
18548SOL    HW257639   3.889   3.213   5.380  0.1234  0.2880 -0.5352
18549SOL     OW57640   0.868   7.079   7.880 -0.1810  0.2247  0.2310
18549SOL    HW157641   0.937   7.140   7.904 -0.4897  0.6715  0.0098
18549SOL    HW257642   0.862   7.019   7.954  1.9941 -1.2599 -0.6929
18550SOL     OW57643   8.807   2.366   0.928  0.1692 -0.3082 -0.4584
18550SOL    HW157644   8.778   2.456   0.921  0.3354 -0.3278 -1.4947
18550SOL    HW257645   8.858   2.363   1.009 -2.3403 -0.1920  1.2603
18551SOL     OW57646   1.201   0.558   8.651 -0.1262  0.0821 -0.1213
18551SOL    HW157647   1.156   0.642   8.644  1.1722  0.8408  0.3962
18551SOL    HW257648   1.194   0.520   8.563 -0.6679  0.7534 -0.3787
18552SOL     OW57649   7.436   1.946   7.172 -0.3774  0.0533  0.0951
18552SOL    HW157650   7.358   1.944   7.228  0.2789 -1.0140  0.9989
18552SOL    HW257651   7.447   1.856   7.144  1.3885 -0.1108  1.2026
18553SOL     OW57652   7.069   0.216   0.449  0.8473 -0.2209  0.1781
18553SOL    HW157653   7.044   0.203   0.357  2.8797 -2.0702 -0.1913
18553SOL    HW257654   6.993   0.188   0.499 -2.3164  5.2138 -0.7248
18554SOL     OW57655   1.253   3.804   4.713 -0.0708 -0.0661  0.2065
18554SOL    HW157656   1.188   3.867   4.745 -2.1538 -2.1699  0.3599
18554SOL    HW257657   1.287   3.844   4.633  0.6386  2.4119  1.6360
18555SOL     OW57658   7.880   6.182   1.465 -0.4698  0.0455  0.7332
18555SOL    HW157659   7.946   6.188   1.396 -2.5695 -1.6087 -1.6459
18555SOL    HW257660   7.929   6.164   1.545  1.9418 -1.6987 -0.9922
18556SOL     OW57661   3.081   5.421   6.610  0.1167  0.2320 -0.5249
18556SOL    HW157662   3.088   5.491   6.675  1.8633 -0.4553  0.0735
18556SOL    HW257663   3.131   5.348   6.646 -1.5015 -1.3137 -1.2069
18557SOL     OW57664   0.359   4.910   4.082  0.3680 -0.1284  0.3105
18557SOL    HW157665   0.393   4.877   4.165 -0.4786  0.5504  0.9388
18557SOL    HW257666   0.418   4.983   4.060 -1.4331  2.0032  2.1411
18558SOL     OW57667   4.279   8.719   6.880  0.0112  0.8037  0.1212
18558SOL    HW157668   4.334   8.660   6.829 -1.2808  0.0728 -0.4751
18558SOL    HW257669   4.197   8.724   6.832 -0.6704  1.3938  1.2855
18559SOL     OW57670   7.506   1.295   5.539 -0.2122  0.9543 -0.3728
18559SOL    HW157671   7.567   1.253   5.599 -0.5237 -1.7741 -1.8257
18559SOL    HW257672   7.532   1.387   5.539  1.0652  0.6844  2.3273
18560SOL     OW57673   0.432   0.261   3.384  0.2554 -0.2774  0.0887
18560SOL    HW157674   0.390   0.177   3.366  1.9492 -1.5167  1.5698
18560SOL    HW257675   0.441   0.302   3.298 -1.3654 -1.1988 -0.5715
18561SOL     OW57676   8.482   8.281   1.711 -0.3116  0.3218 -0.4180
18561SOL    HW157677   8.439   8.261   1.627  0.0008 -0.4274 -0.4078
18561SOL    HW257678   8.515   8.371   1.700  2.6741 -0.8285 -2.4154
18562SOL     OW57679   6.013   6.223   3.455 -0.3085  0.0429  0.1783
18562SOL    HW157680   6.019   6.316   3.433  0.0429  0.0494  0.3010
18562SOL    HW257681   5.920   6.201   3.442 -0.2280  0.1943 -0.7038
18563SOL     OW57682   2.864   8.572   1.844  0.2066  0.6626 -0.6082
18563SOL    HW157683   2.893   8.627   1.771 -0.7058  1.3326 -0.4876
18563SOL    HW257684   2.833   8.634   1.910  0.2648  0.0355  0.0185
18564SOL     OW57685   3.996   6.120   8.639 -0.2338 -0.2254 -0.3594
18564SOL    HW157686   4.033   6.095   8.724  0.8896 -0.9098 -1.0191
18564SOL    HW257687   3.940   6.047   8.613  1.2148 -1.0946 -1.2139
18565SOL     OW57688   8.685   2.899   6.910  0.6037 -0.0045 -0.5811
18565SOL    HW157689   8.597   2.902   6.873  1.3411  0.6853 -2.4342
18565SOL    HW257690   8.710   2.991   6.920  0.4361 -0.1515  1.7908
18566SOL     OW57691   1.853   0.513   5.103 -0.4618 -0.3576  0.5700
18566SOL    HW157692   1.833   0.458   5.179  0.4555 -1.0061  0.3666
18566SOL    HW257693   1.842   0.454   5.028 -0.6442  0.0753  0.2578
18567SOL     OW57694   4.672   6.781   6.881  0.4622  0.0442 -0.0133
18567SOL    HW157695   4.715   6.854   6.836  0.7306 -0.8911 -1.3523
18567SOL    HW257696   4.598   6.821   6.926  2.1862  1.5626  1.6356
18568SOL     OW57697   4.434   7.248   2.691  0.5466 -0.6102  0.5507
18568SOL    HW157698   4.508   7.309   2.690 -0.0577  0.1476 -0.8434
18568SOL    HW257699   4.460   7.179   2.752  0.7570  1.6250  3.1921
18569SOL     OW57700   6.516   5.398   2.499 -0.5662 -0.3572 -0.9477
18569SOL    HW157701   6.572   5.371   2.572 -2.1379 -2.7718 -0.5271
18569SOL    HW257702   6.427   5.396   2.534 -1.2143  0.2579 -2.4403
18570SOL     OW57703   5.897   7.591   8.781  0.0901 -0.5945  0.1121
18570SOL    HW157704   5.979   7.570   8.737 -1.2902 -1.9447 -2.0035
18570SOL    HW257705   5.885   7.521   8.845  0.3871 -0.6243  0.1328
18571SOL     OW57706   3.029   6.140   6.570 -0.1970  0.1175 -0.0644
18571SOL    HW157707   3.006   6.069   6.629 -0.5611  0.1329 -0.1826
18571SOL    HW257708   3.020   6.219   6.622 -1.5038  0.2155 -0.3989
18572SOL     OW57709   6.425   5.167   3.721 -0.1875 -0.3841 -0.1764
18572SOL    HW157710   6.436   5.251   3.765 -0.7620  0.8394 -2.2778
18572SOL    HW257711   6.492   5.111   3.761  1.1173  1.4416  0.3306
18573SOL     OW57712   6.402   3.716   3.571 -0.7364 -0.7379  0.6039
18573SOL    HW157713   6.331   3.779   3.587  0.6609  1.0848  0.0612
18573SOL    HW257714   6.394   3.693   3.479 -0.7860 -0.7308  0.6063
18574SOL     OW57715   4.985   4.889   7.843  0.1118 -0.3900  0.3224
18574SOL    HW157716   5.041   4.843   7.905  0.0587 -0.5525  0.2520
18574SOL    HW257717   5.006   4.981   7.855 -1.0689 -0.2788  1.7258
18575SOL     OW57718   1.277   2.088   3.304 -0.2979  0.5779  0.4111
18575SOL    HW157719   1.203   2.128   3.349 -1.3933 -1.1145  0.1764
18575SOL    HW257720   1.240   2.015   3.255  1.3853  0.2716 -0.4881
18576SOL     OW57721   4.488   8.161   6.272 -0.0734 -0.1867 -0.5002
18576SOL    HW157722   4.418   8.220   6.243 -0.8923  0.1347  1.9051
18576SOL    HW257723   4.446   8.075   6.279  0.2413 -0.3601 -0.6936
18577SOL     OW57724   4.674   4.792   0.461  0.2746  0.0999 -0.0498
18577SOL    HW157725   4.715   4.858   0.518 -1.1034 -0.2546  1.4278
18577SOL    HW257726   4.610   4.842   0.411  1.9300  0.5330 -1.8783
18578SOL     OW57727   4.579   5.253   0.128  0.1831  0.1811 -0.9240
18578SOL    HW157728   4.536   5.316   0.185  1.0388  0.7663 -0.9150
18578SOL    HW257729   4.507   5.202   0.090 -0.6199  1.9263 -1.8485
18579SOL     OW57730   6.129   6.121   0.015  0.0528  0.0932 -0.1117
18579SOL    HW157731   6.109   6.159  -0.070 -1.7727 -3.2472 -1.3419
18579SOL    HW257732   6.066   6.162   0.075 -0.8284  0.1508 -1.0495
18580SOL     OW57733   6.839   0.996   5.472  0.1604  0.3478  0.6599
18580SOL    HW157734   6.842   1.067   5.535 -1.2599  0.8851  0.1581
18580SOL    HW257735   6.931   0.973   5.457  0.7804  3.1013 -0.3090
18581SOL     OW57736   8.850   8.076   3.334  0.3903  0.0440  0.1091
18581SOL    HW157737   8.812   8.110   3.253 -0.1477 -2.7666 -0.9173
18581SOL    HW257738   8.802   7.996   3.352  0.4397  0.5891  3.3341
18582SOL     OW57739   5.738   0.623   2.215 -0.3700 -0.7453  0.4282
18582SOL    HW157740   5.818   0.571   2.221  0.3077 -0.0766 -1.6707
18582SOL    HW257741   5.768   0.708   2.181 -1.9093 -0.3437  0.0071
18583SOL     OW57742   5.996   5.734   0.202  0.2450  0.4388  0.2908
18583SOL    HW157743   5.972   5.655   0.251 -3.6512 -0.3117 -2.3433
18583SOL    HW257744   6.069   5.706   0.146 -0.8145 -1.2851 -0.3127
18584SOL     OW57745   5.760   2.603   5.364 -0.5583 -0.0826 -0.3261
18584SOL    HW157746   5.724   2.680   5.321  0.6012  0.1896 -0.8240
18584SOL    HW257747   5.811   2.637   5.437  0.3615 -0.3365 -0.8380
18585SOL     OW57748   1.702   7.524   6.636 -0.2375  0.4124  0.4033
18585SOL    HW157749   1.748   7.494   6.715 -0.1110 -0.0465  0.1564
18585SOL    HW257750   1.761   7.587   6.596 -0.6928  1.3642  1.1622
18586SOL     OW57751   8.568   5.498   6.821  0.1742 -0.0117  0.2160
18586SOL    HW157752   8.613   5.576   6.789 -2.0976  1.5806  0.6704
18586SOL    HW257753   8.488   5.494   6.769  0.3873 -2.2672 -0.0051
18587SOL     OW57754   4.700   4.010   5.762 -0.3390  0.1697 -0.6563
18587SOL    HW157755   4.676   4.002   5.855  0.7084  0.5687 -0.3326
18587SOL    HW257756   4.636   4.071   5.726 -2.9005 -2.5788 -1.0578
18588SOL     OW57757   5.292   7.427   7.309 -0.4736  0.1958  0.1063
18588SOL    HW157758   5.239   7.351   7.285  1.6957 -1.1505 -0.7438
18588SOL    HW257759   5.254   7.499   7.259 -0.9035 -0.9543 -1.3150
18589SOL     OW57760   4.669   1.358   3.866  0.2577  0.1747 -0.1786
18589SOL    HW157761   4.718   1.314   3.936  0.8007 -0.9452 -1.2329
18589SOL    HW257762   4.583   1.316   3.867  0.0781  0.5501  0.1820
18590SOL     OW57763   1.072   3.078   7.635 -0.1022  0.0258  0.1968
18590SOL    HW157764   1.084   2.988   7.604  4.9175  0.8429 -1.0448
18590SOL    HW257765   1.081   3.132   7.557 -0.2789  1.7192  1.2959
18591SOL     OW57766   2.823   8.253   4.829  0.3117 -0.1537  0.3281
18591SOL    HW157767   2.810   8.337   4.872  0.1450  0.8345 -1.5452
18591SOL    HW257768   2.870   8.200   4.893  0.5527  1.4112  1.4976
18592SOL     OW57769   6.102   3.814   3.694  0.2611  0.1172 -0.3326
18592SOL    HW157770   6.048   3.832   3.617  0.1816  0.0468 -0.2935
18592SOL    HW257771   6.102   3.718   3.701 -0.3434  0.1548  0.1945
18593SOL     OW57772   3.676   8.596   3.892 -0.1301 -0.3153 -0.2897
18593SOL    HW157773   3.685   8.577   3.798 -1.1689 -0.6872 -0.3312
18593SOL    HW257774   3.704   8.687   3.901  0.3052 -0.3803 -0.8983
18594SOL     OW57775   3.621   1.227   3.875 -0.7047 -0.1861 -0.2211
18594SOL    HW157776   3.716   1.219   3.873 -0.8324 -3.2294  0.7236
18594SOL    HW257777   3.604   1.300   3.935  1.0350 -0.6810  0.9593
18595SOL     OW57778   8.395   4.608   1.600  0.0163 -0.4851 -0.3163
18595SOL    HW157779   8.337   4.617   1.525 -1.2562 -0.6535  0.6088
18595SOL    HW257780   8.426   4.697   1.618  0.4383 -0.4679 -1.1136
18596SOL     OW57781   1.573   8.224   4.225 -0.7142 -0.3315  0.1184
18596SOL    HW157782   1.562   8.287   4.296 -0.7737  0.0926 -0.2618
18596SOL    HW257783   1.661   8.189   4.237  0.2142  1.5064 -0.9901
18597SOL     OW57784   7.342   8.149   0.690  0.4506 -0.0227 -0.2975
18597SOL    HW157785   7.395   8.095   0.631 -0.4036 -0.2307 -0.8903
18597SOL    HW257786   7.320   8.090   0.762  1.3095  0.1677  0.1367
18598SOL     OW57787   1.796   2.784   8.034  0.3353  0.8372 -0.1981
18598SOL    HW157788   1.730   2.806   7.969 -0.6138 -1.8865 -0.2559
18598SOL    HW257789   1.874   2.832   8.006 -1.1414  2.9898 -0.9375
18599SOL     OW57790   8.650   2.427   6.477 -0.2818  0.0699 -0.5104
18599SOL    HW157791   8.562   2.390   6.464  0.1724 -0.9683 -0.7091
18599SOL    HW257792   8.702   2.354   6.510  0.2085  1.0012  0.8867
18600SOL     OW57793   1.605   0.116   5.418  0.3884  0.4887  0.3060
18600SOL    HW157794   1.591   0.056   5.345 -2.3888  0.6573  0.6137
18600SOL    HW257795   1.633   0.060   5.491 -0.6730 -0.2492  0.1646
18601SOL     OW57796   1.195   5.054   8.220 -0.3760  0.9004 -0.0793
18601SOL    HW157797   1.128   4.988   8.202  0.5411 -0.3497  0.8930
18601SOL    HW257798   1.156   5.136   8.192 -1.5299 -0.0493 -1.4219
18602SOL     OW57799   5.379   4.060   6.835  0.5299 -0.2734  0.8514
18602SOL    HW157800   5.315   4.126   6.808  0.3008 -1.3985 -1.7347
18602SOL    HW257801   5.457   4.109   6.859 -0.1642  0.9991  0.6042
18603SOL     OW57802   5.244   8.447   1.704  0.2262  0.5032 -0.3077
18603SOL    HW157803   5.159   8.410   1.728 -0.0471  0.5579 -1.1513
18603SOL    HW257804   5.246   8.533   1.746  0.1240  0.2571  0.2082
18604SOL     OW57805   3.654   0.301   7.989 -0.2448 -0.0188  0.2088
18604SOL    HW157806   3.749   0.298   7.994 -0.2206  0.1286 -0.1487
18604SOL    HW257807   3.635   0.330   7.900 -0.6224  0.0270  0.3008
18605SOL     OW57808   4.158   7.468   3.368  0.3666  0.5403 -0.0843
18605SOL    HW157809   4.247   7.464   3.333  0.4674 -1.0637  0.2915
18605SOL    HW257810   4.162   7.533   3.439  1.7361 -0.9682  1.2785
18606SOL     OW57811   2.144   1.977   2.492 -0.2859  0.2380  0.7333
18606SOL    HW157812   2.187   2.055   2.456 -0.1781 -0.1889 -0.0773
18606SOL    HW257813   2.063   1.968   2.441  0.5464 -1.1858 -0.4144
18607SOL     OW57814   3.570   3.274   3.329  0.2192  0.3012 -0.4021
18607SOL    HW157815   3.544   3.302   3.416  0.3022  1.4976 -0.7399
18607SOL    HW257816   3.489   3.279   3.277  0.1041 -0.6974 -0.3287
18608SOL     OW57817   7.840   1.786   7.438 -0.2953  0.0403 -0.2234
18608SOL    HW157818   7.933   1.777   7.418  0.0295 -0.8393  1.4793
18608SOL    HW257819   7.827   1.881   7.447  0.4862  0.1570 -0.2433
18609SOL     OW57820   3.861   4.591   8.694 -0.6628 -0.5740  0.7347
18609SOL    HW157821   3.950   4.609   8.725  0.2241 -0.0896 -1.9074
18609SOL    HW257822   3.863   4.499   8.668 -1.0009 -0.6038  0.8096
18610SOL     OW57823   3.165   6.886   4.443 -0.1774 -0.1322 -0.2511
18610SOL    HW157824   3.099   6.819   4.424 -1.1941  1.5363 -3.2850
18610SOL    HW257825   3.246   6.850   4.408  0.0026 -1.0360  1.0103
18611SOL     OW57826   0.580   8.892   0.629  0.2756 -0.4831  0.4465
18611SOL    HW157827   0.541   8.969   0.669  0.3382 -0.7439  1.0252
18611SOL    HW257828   0.596   8.917   0.538  0.7569  0.3535  0.7497
18612SOL     OW57829   1.634   2.385   2.825 -0.2469 -0.3302 -0.0740
18612SOL    HW157830   1.564   2.321   2.841 -0.3527 -0.5032 -1.1559
18612SOL    HW257831   1.678   2.354   2.746  0.0751  0.6169 -0.2831
18613SOL     OW57832   7.052   4.955   1.513  0.5070  0.5753 -0.0444
18613SOL    HW157833   7.095   4.896   1.574  0.7106 -0.1677 -0.8891
18613SOL    HW257834   6.959   4.950   1.536  0.5731  0.2197  0.1473
18614SOL     OW57835   8.653   6.937   5.677  0.3260 -0.1264 -0.4681
18614SOL    HW157836   8.604   6.871   5.726  3.7593 -2.9822 -0.4936
18614SOL    HW257837   8.689   6.995   5.744  2.9987 -2.5829  0.4196
18615SOL     OW57838   4.561   8.474   0.800 -0.4014  0.0104  0.1448
18615SOL    HW157839   4.566   8.517   0.885  0.2863 -0.0665  0.1432
18615SOL    HW257840   4.651   8.454   0.777 -0.6750 -1.1640  0.0126
18616SOL     OW57841   5.234   5.182   8.258  0.5033 -0.1247 -0.0476
18616SOL    HW157842   5.271   5.185   8.170  0.1742 -3.8131 -0.4433
18616SOL    HW257843   5.140   5.172   8.245  0.3829 -0.1624  0.7606
18617SOL     OW57844   2.695   0.140   3.012 -0.1952  0.2223 -0.0417
18617SOL    HW157845   2.627   0.110   3.073 -0.1780  1.1758  0.4795
18617SOL    HW257846   2.663   0.115   2.926 -1.9170  1.8354  0.0529
18618SOL     OW57847   6.111   7.887   2.622 -0.3329  0.4492 -0.7980
18618SOL    HW157848   6.065   7.945   2.682 -0.1329  1.8484 -1.9356
18618SOL    HW257849   6.169   7.835   2.678 -0.8505  1.0325  0.3022
18619SOL     OW57850   1.492   4.259   7.929 -0.4880 -0.2029  0.2519
18619SOL    HW157851   1.509   4.165   7.938  0.3432 -0.1457 -0.5572
18619SOL    HW257852   1.488   4.292   8.018  1.3413 -0.6533  0.5352
18620SOL     OW57853   5.749   2.924   8.756 -0.2407  0.2200 -0.4554
18620SOL    HW157854   5.831   2.884   8.784 -1.6499 -0.8466  2.6277
18620SOL    HW257855   5.760   3.018   8.774  0.1026 -0.0175  0.6704
18621SOL     OW57856   3.350   4.219   3.361 -0.0446  0.2266 -0.0623
18621SOL    HW157857   3.395   4.140   3.393 -0.3405  0.3401  0.6708
18621SOL    HW257858   3.317   4.261   3.441 -0.7545  0.5666 -0.5275
18622SOL     OW57859   6.043   5.934   0.913  0.0902 -0.0224  0.1930
18622SOL    HW157860   6.112   5.919   0.978  0.7503  0.7914 -0.2919
18622SOL    HW257861   6.081   5.999   0.853 -0.9834  0.1969 -0.2678
18623SOL     OW57862   7.014   4.434   6.921  0.0155 -0.4659 -0.5466
18623SOL    HW157863   7.054   4.501   6.976 -2.1942  0.2127  0.3155
18623SOL    HW257864   7.080   4.417   6.854  1.6403  0.7405  0.6569
18624SOL     OW57865   7.850   8.694   7.153  0.4873  0.1130  0.0572
18624SOL    HW157866   7.919   8.751   7.120 -0.5233  2.3788  1.5685
18624SOL    HW257867   7.777   8.754   7.173 -1.1334 -1.8966  0.5402
18625SOL     OW57868   4.814   6.386   1.832  0.0737  0.3543 -0.3872
18625SOL    HW157869   4.798   6.370   1.925 -0.4292  2.6807 -0.0150
18625SOL    HW257870   4.729   6.370   1.790 -0.1504  0.9668 -0.1787
18626SOL     OW57871   5.143   3.743   7.922  0.1061  0.4549  0.3683
18626SOL    HW157872   5.103   3.829   7.908  0.1255  0.7894  2.1386
18626SOL    HW257873   5.092   3.704   7.993 -0.8173 -1.6426 -1.3209
18627SOL     OW57874   1.816   4.679   8.615 -0.5697 -0.1617 -0.7463
18627SOL    HW157875   1.765   4.720   8.685 -1.5325 -0.8975 -0.9861
18627SOL    HW257876   1.775   4.593   8.603  1.9950 -1.6414  0.4086
18628SOL     OW57877   0.928   6.875   6.168 -0.4666 -0.2564 -0.0110
18628SOL    HW157878   0.949   6.799   6.115  0.4860  0.9008 -1.3521
18628SOL    HW257879   0.833   6.874   6.175 -0.6237 -0.4473 -1.7753
18629SOL     OW57880   0.938   4.498   2.144 -0.0609  0.4068 -0.1440
18629SOL    HW157881   1.026   4.466   2.164 -0.4100 -1.0818 -0.8488
18629SOL    HW257882   0.881   4.422   2.159 -0.9904  0.8309 -1.4237
18630SOL     OW57883   8.051   6.453   2.827  0.1787 -0.3614 -0.3786
18630SOL    HW157884   7.959   6.438   2.808  0.2574 -0.0433 -1.0507
18630SOL    HW257885   8.055   6.464   2.922 -0.3943 -0.9073 -0.2808
18631SOL     OW57886   2.562   0.039   2.015 -0.3063 -0.1816 -0.1592
18631SOL    HW157887   2.475   0.048   2.053 -0.0202 -0.0488  0.4777
18631SOL    HW257888   2.551   0.062   1.923 -0.8348  0.3691  0.0406
18632SOL     OW57889   1.700   3.717   3.961  0.1148 -0.2444 -0.0326
18632SOL    HW157890   1.662   3.756   3.882 -1.5779  0.7456  1.2041
18632SOL    HW257891   1.634   3.655   3.992  0.3568  0.0056  1.0456
18633SOL     OW57892   6.045   6.960   2.123 -0.0772  0.0806 -0.1108
18633SOL    HW157893   6.026   6.890   2.185 -0.0015  0.2779  0.1367
18633SOL    HW257894   6.123   6.930   2.077  0.6761  0.5343  0.8283
18634SOL     OW57895   3.289   6.570   7.945 -0.7237 -0.0345  0.3414
18634SOL    HW157896   3.326   6.573   8.033 -1.2955  0.9454  0.5649
18634SOL    HW257897   3.194   6.568   7.958 -0.8184  0.1856 -0.2430
18635SOL     OW57898   6.756   0.795   3.294 -0.6684  0.3922  0.1901
18635SOL    HW157899   6.675   0.783   3.245 -0.8360  0.3601  0.4712
18635SOL    HW257900   6.741   0.872   3.349 -0.0598  1.1232 -0.6516
18636SOL     OW57901   8.629   1.373   0.987 -0.4329 -0.1337  0.1245
18636SOL    HW157902   8.639   1.432   1.062  1.4132 -1.1178  0.7133
18636SOL    HW257903   8.584   1.297   1.023 -0.5719 -0.1261 -0.0353
18637SOL     OW57904   0.543   8.733   5.971 -0.0955 -0.6881 -0.7976
18637SOL    HW157905   0.543   8.638   5.981  2.3500 -0.6789 -0.1583
18637SOL    HW257906   0.609   8.750   5.904 -0.9823  0.5532 -1.3910
18638SOL     OW57907   2.636   8.281   7.059 -0.1207 -0.1556  0.2066
18638SOL    HW157908   2.675   8.230   7.130 -0.5177  1.0052  1.2885
18638SOL    HW257909   2.543   8.284   7.080 -0.3264 -0.1793 -0.6300
18639SOL     OW57910   2.532   5.141   8.034 -0.1490  0.2676  0.0498
18639SOL    HW157911   2.564   5.191   7.959 -0.5669  0.2341 -0.1513
18639SOL    HW257912   2.453   5.187   8.061 -0.3450 -0.0875  0.0785
18640SOL     OW57913   5.951   6.311   6.124 -0.0293  0.0442  0.1757
18640SOL    HW157914   5.895   6.276   6.194 -0.2534 -0.9368 -0.4734
18640SOL    HW257915   6.023   6.249   6.117 -0.0308  0.1058 -0.4918
18641SOL     OW57916   2.908   6.560   0.261  0.3542 -0.2314  0.1435
18641SOL    HW157917   2.869   6.517   0.185  0.2514  0.4116 -0.1677
18641SOL    HW257918   2.973   6.620   0.224 -1.8386  2.4218  0.3287
18642SOL     OW57919   7.954   6.723   5.092  0.0092 -0.1049 -0.1563
18642SOL    HW157920   7.890   6.671   5.141  0.6889 -2.5622 -1.6931
18642SOL    HW257921   8.038   6.702   5.134  0.0438  2.0560  0.9944
18643SOL     OW57922   6.440   7.800   2.359  0.8455  0.0139  0.3338
18643SOL    HW157923   6.531   7.779   2.382  1.5462  1.4527 -0.9599
18643SOL    HW257924   6.447   7.856   2.282 -1.1742 -0.0965  0.0194
18644SOL     OW57925   1.132   2.814   5.182 -0.4499 -0.6379  0.9039
18644SOL    HW157926   1.094   2.876   5.243 -0.4706 -1.2404  1.5138
18644SOL    HW257927   1.207   2.776   5.229 -0.0624 -0.6207  0.3107
18645SOL     OW57928   5.456   4.082   1.038  0.1327 -0.0738 -0.1292
18645SOL    HW157929   5.505   4.163   1.050  0.4534 -0.3503  0.5179
18645SOL    HW257930   5.523   4.014   1.029 -0.1155 -0.4308  0.5777
18646SOL     OW57931   0.527   7.219   8.120  0.0489  0.1876  0.2446
18646SOL    HW157932   0.480   7.207   8.038  0.8226 -1.1004 -0.0440
18646SOL    HW257933   0.462   7.205   8.188 -0.0371 -1.5181 -0.1450
18647SOL     OW57934   8.283   6.532   6.703  0.0496 -0.0910  0.6763
18647SOL    HW157935   8.285   6.512   6.797  0.2171 -2.2018  0.2755
18647SOL    HW257936   8.368   6.570   6.684 -0.0404  0.4852  1.4015
18648SOL     OW57937   5.506   2.075   5.942 -0.0546  0.0187  0.2589
18648SOL    HW157938   5.565   2.035   6.006 -0.4778 -1.5415 -0.2722
18648SOL    HW257939   5.474   2.153   5.986  2.7396  1.2237  0.3908
18649SOL     OW57940   0.670   5.589   8.541  0.4326  0.5199  0.4030
18649SOL    HW157941   0.672   5.676   8.502 -2.4792  0.9060  0.8941
18649SOL    HW257942   0.634   5.603   8.629 -0.4192 -1.1828  0.3679
18650SOL     OW57943   8.330   6.154   0.630 -0.4198 -0.1739 -0.2344
18650SOL    HW157944   8.342   6.142   0.535 -2.2240 -1.4545 -0.3530
18650SOL    HW257945   8.296   6.070   0.661 -1.3337  0.6955  1.2747
18651SOL     OW57946   2.170   1.134   8.797  1.2343 -0.1635 -0.6659
18651SOL    HW157947   2.205   1.061   8.849  0.6182  0.1092  0.1514
18651SOL    HW257948   2.228   1.207   8.816 -0.7675  0.8461  2.2431
18652SOL     OW57949   0.442   0.302   3.112 -0.4377 -0.2164 -0.1797
18652SOL    HW157950   0.436   0.349   3.029 -0.3589  0.0252 -0.0511
18652SOL    HW257951   0.486   0.220   3.091  2.3263  1.0627  0.0937
18653SOL     OW57952   1.698   1.831   1.950  0.4668  0.2930 -0.4312
18653SOL    HW157953   1.729   1.740   1.941 -0.2757 -0.2606  1.9914
18653SOL    HW257954   1.768   1.876   1.997  0.0370  0.4902  0.0296
18654SOL     OW57955   1.008   6.653   5.074  0.0313  0.7919  0.0017
18654SOL    HW157956   1.058   6.634   5.154 -0.4971 -0.4094  0.0646
18654SOL    HW257957   1.071   6.698   5.017  1.4154 -1.2175 -0.1583
18655SOL     OW57958   2.269   7.711   4.060 -0.0702 -0.0241 -0.3580
18655SOL    HW157959   2.294   7.686   3.971  0.3123 -0.6220 -0.0904
18655SOL    HW257960   2.179   7.679   4.069 -0.0157 -0.2003 -0.4394
18656SOL     OW57961   5.826   4.765   0.670 -0.1903 -0.1420  0.3923
18656SOL    HW157962   5.859   4.732   0.586  0.5370  0.1762  0.5438
18656SOL    HW257963   5.825   4.688   0.727 -0.2914 -0.2761  0.2117
18657SOL     OW57964   2.880   6.062   1.095  0.2462  0.1655  0.1063
18657SOL    HW157965   2.880   5.967   1.080  0.0450 -0.0500  1.3545
18657SOL    HW257966   2.955   6.094   1.044 -0.9266 -0.3311 -2.0755
18658SOL     OW57967   0.852   8.863   3.095 -0.1159  0.1299 -0.2370
18658SOL    HW157968   0.791   8.900   3.159 -0.8227 -1.1350 -0.1624
18658SOL    HW257969   0.799   8.848   3.017 -0.4019 -2.7142  0.4199
18659SOL     OW57970   8.726   3.327   6.414 -0.7752 -0.1128 -0.5365
18659SOL    HW157971   8.729   3.387   6.340 -1.5480  0.7589  0.1257
18659SOL    HW257972   8.672   3.254   6.383  1.0093 -1.0203 -1.7014
18660SOL     OW57973   8.018   3.860   3.032 -0.0169  0.3538  0.1584
18660SOL    HW157974   8.065   3.939   3.057  0.1109  0.9961 -1.9784
18660SOL    HW257975   8.028   3.802   3.108  1.5836  1.6163  0.9805
18661SOL     OW57976   1.867   4.973   3.120 -0.1498  0.3939  0.0137
18661SOL    HW157977   1.829   4.990   3.034  0.3521  0.3312 -0.2211
18661SOL    HW257978   1.801   5.007   3.182 -1.3011 -1.0874 -0.3385
18662SOL     OW57979   5.534   3.264   7.290 -0.5628 -0.0311  0.0639
18662SOL    HW157980   5.542   3.198   7.222 -0.8691  0.5836 -0.5800
18662SOL    HW257981   5.624   3.276   7.323 -0.2860  0.1913 -0.7413
18663SOL     OW57982   4.802   6.240   8.400  0.1691 -0.2898  0.3587
18663SOL    HW157983   4.829   6.329   8.421  1.1660 -0.3832 -0.4205
18663SOL    HW257984   4.824   6.189   8.478 -0.6653  0.1729  0.9174
18664SOL     OW57985   7.831   0.454   2.836 -0.1643 -0.0512  0.2077
18664SOL    HW157986   7.819   0.516   2.908 -0.2146 -1.1331  1.1744
18664SOL    HW257987   7.906   0.401   2.862 -1.7032 -2.1178  0.7515
18665SOL     OW57988   1.835   8.788   8.274  0.1765  0.0749  0.1375
18665SOL    HW157989   1.834   8.796   8.369  0.2651 -0.9569  0.2398
18665SOL    HW257990   1.747   8.758   8.251 -0.2442  1.4944 -0.2474
18666SOL     OW57991   2.022   0.374   1.448 -0.7663 -0.3262 -0.5900
18666SOL    HW157992   1.941   0.425   1.451 -0.3696  0.3797 -1.4612
18666SOL    HW257993   2.044   0.370   1.355  1.5682  1.7250 -0.2344
18667SOL     OW57994   1.377   4.583   0.759 -0.0384  0.0747  0.2829
18667SOL    HW157995   1.359   4.544   0.845 -1.1915 -0.4370 -0.1631
18667SOL    HW257996   1.316   4.538   0.700  0.2683  0.9018 -0.6814
18668SOL     OW57997   1.264   6.241   7.838  0.1248 -0.5994  0.2286
18668SOL    HW157998   1.281   6.326   7.797  0.9768 -0.5424  0.6791
18668SOL    HW257999   1.217   6.262   7.918 -0.4049 -0.6172 -0.0749
18669SOL     OW58000   1.477   5.379   7.638 -0.3797 -0.1806 -0.1378
18669SOL    HW158001   1.446   5.441   7.572  0.7834 -0.3096 -0.8376
18669SOL    HW258002   1.397   5.348   7.680 -1.2908 -0.9831 -2.2845
18670SOL     OW58003   5.845   1.700   6.996  0.6559  0.7626  0.1615
18670SOL    HW158004   5.842   1.778   6.941  2.5896  1.4868  1.0098
18670SOL    HW258005   5.771   1.711   7.057 -0.1649  1.0204 -0.8566
18671SOL     OW58006   1.908   0.430   2.745  0.1409  0.2472 -0.6683
18671SOL    HW158007   1.879   0.514   2.710 -1.0887  0.9426  1.8026
18671SOL    HW258008   1.852   0.415   2.821  2.4957 -1.2010  0.9046
18672SOL     OW58009   3.303   1.157   1.082 -0.1447 -0.5366 -0.1660
18672SOL    HW158010   3.338   1.069   1.100  2.1055  0.3011 -0.1462
18672SOL    HW258011   3.376   1.204   1.043 -0.6318  1.9479  1.6622
18673SOL     OW58012   1.476   8.345   6.733 -0.9899 -0.4446  0.6684
18673SOL    HW158013   1.489   8.413   6.666 -1.0665 -0.7105  0.3790
18673SOL    HW258014   1.435   8.273   6.685 -1.0483 -0.6357  1.0069
18674SOL     OW58015   3.810   6.663   5.616 -0.0500 -0.3631 -0.4072
18674SOL    HW158016   3.896   6.639   5.582  0.5740 -0.3180  1.0640
18674SOL    HW258017   3.797   6.605   5.692 -1.2912 -0.3249 -0.5713
18675SOL     OW58018   6.153   5.969   4.170 -0.3257  0.0169  0.4755
18675SOL    HW158019   6.215   6.025   4.123  0.1165 -1.7357 -1.1316
18675SOL    HW258020   6.121   5.908   4.104 -1.7676 -0.8187  1.8828
18676SOL     OW58021   2.599   7.888   0.781 -0.2577 -0.2875 -0.0804
18676SOL    HW158022   2.531   7.854   0.839  0.1518  0.5460  0.9286
18676SOL    HW258023   2.627   7.812   0.730 -1.2247 -0.8586  0.2098
18677SOL     OW58024   5.809   7.868   1.756 -0.0178 -0.6016 -0.0081
18677SOL    HW158025   5.900   7.860   1.729  0.0090  0.3551 -0.2104
18677SOL    HW258026   5.786   7.959   1.740 -1.5724 -1.2199 -1.7136
18678SOL     OW58027   2.798   7.768   7.256  0.2442  0.0505 -0.0255
18678SOL    HW158028   2.891   7.788   7.243  0.3641 -0.5827 -0.2070
18678SOL    HW258029   2.798   7.707   7.330 -0.1863  1.4094  1.1179
18679SOL     OW58030   2.221   1.527   2.941  0.6422 -0.4440  1.0608
18679SOL    HW158031   2.288   1.588   2.910  0.6633 -1.0549 -0.1354
18679SOL    HW258032   2.266   1.443   2.948  0.4554 -0.4685  2.0836
18680SOL     OW58033   6.974   5.316   8.351 -0.6417  0.4789 -0.4320
18680SOL    HW158034   7.011   5.323   8.263  0.6940  1.6630  0.1755
18680SOL    HW258035   7.011   5.234   8.385 -1.3397 -0.0953 -1.0398
18681SOL     OW58036   0.685   3.572   4.260  0.3060  0.5723  0.3430
18681SOL    HW158037   0.611   3.527   4.301  0.7614  0.9047  1.5685
18681SOL    HW258038   0.742   3.596   4.333  2.4152 -1.0232 -0.6685
18682SOL     OW58039   6.352   5.833   7.340 -0.4896 -0.6314  0.2611
18682SOL    HW158040   6.409   5.778   7.393  2.2290  1.9550  0.3266
18682SOL    HW258041   6.378   5.814   7.249 -0.0981 -0.0518  0.2466
18683SOL     OW58042   2.601   4.399   3.981 -0.1311  0.5399  0.3427
18683SOL    HW158043   2.680   4.427   4.028  0.9746  1.3546 -1.8224
18683SOL    HW258044   2.565   4.328   4.034  3.2588 -1.3433  0.4139
18684SOL     OW58045   5.857   7.312   7.801  0.5351 -0.2481  0.1233
18684SOL    HW158046   5.844   7.365   7.722  0.7252 -0.6829 -0.2022
18684SOL    HW258047   5.945   7.336   7.831 -0.8556  2.7983  2.4033
18685SOL     OW58048   0.301   4.186   0.117 -0.5681  0.2026  0.3712
18685SOL    HW158049   0.378   4.207   0.170  0.8235  0.2287 -1.5333
18685SOL    HW258050   0.288   4.263   0.062 -0.8710 -0.4697 -0.5342
18686SOL     OW58051   0.102   7.676   8.454 -0.3317  0.1829 -0.3632
18686SOL    HW158052   0.147   7.707   8.533  0.4960 -1.0498 -0.3205
18686SOL    HW258053   0.009   7.694   8.471 -0.3020 -0.9368  1.3539
18687SOL     OW58054   4.347   8.553   8.055  0.1482  0.4236  0.2373
18687SOL    HW158055   4.259   8.560   8.091 -0.2374 -2.6819  0.2053
18687SOL    HW258056   4.339   8.583   7.964 -0.5860  1.3229  0.5959
18688SOL     OW58057   0.633   5.833   5.003 -0.4407 -0.0794  0.5081
18688SOL    HW158058   0.711   5.888   4.999 -0.1150 -0.5618 -0.0324
18688SOL    HW258059   0.592   5.843   4.916  0.4920 -1.9086 -0.1899
18689SOL     OW58060   2.685   7.677   7.988 -0.3467 -0.5234 -0.2409
18689SOL    HW158061   2.621   7.698   8.056 -0.7787 -0.7173 -0.5847
18689SOL    HW258062   2.761   7.644   8.036  1.3481  3.8811  0.5731
18690SOL     OW58063   5.144   2.150   6.734  0.3613  0.2820 -0.1731
18690SOL    HW158064   5.203   2.181   6.803  0.6989 -0.3516 -0.1689
18690SOL    HW258065   5.098   2.229   6.704  0.4855  0.6217  0.5122
18691SOL     OW58066   2.588   3.069   8.489 -0.5783  0.7414  0.0067
18691SOL    HW158067   2.603   3.142   8.429 -0.7206  0.8523  0.1037
18691SOL    HW258068   2.641   3.090   8.566 -0.0555  0.3828 -0.2532
18692SOL     OW58069   0.867   2.203   8.026 -0.0230 -0.5747 -0.5178
18692SOL    HW158070   0.774   2.181   8.023 -0.0344 -0.6333  0.1392
18692SOL    HW258071   0.911   2.123   7.998 -0.1926 -0.2578 -1.7455
18693SOL     OW58072   8.197   5.673   2.764  0.1177  0.0987 -0.3641
18693SOL    HW158073   8.168   5.591   2.804 -1.1888 -1.6078 -4.4048
18693SOL    HW258074   8.283   5.653   2.727 -0.0465  0.6673 -1.0755
18694SOL     OW58075   6.344   7.927   7.542 -0.5365 -0.3201 -0.3616
18694SOL    HW158076   6.326   7.837   7.569  0.5687  0.0050  1.7085
18694SOL    HW258077   6.264   7.976   7.563 -0.6434 -0.5751 -0.1737
18695SOL     OW58078   3.813   2.612   4.606  0.0440 -0.3116 -0.0812
18695SOL    HW158079   3.878   2.617   4.536  0.2236 -1.9348 -0.0637
18695SOL    HW258080   3.730   2.630   4.563  0.4863  2.2862 -0.0195
18696SOL     OW58081   8.071   5.723   8.135  0.1085  0.6600  0.4281
18696SOL    HW158082   8.134   5.757   8.198 -0.6630  1.0732  0.9932
18696SOL    HW258083   8.116   5.649   8.093  0.9138  0.8721  0.9012
18697SOL     OW58084   8.519   8.181   3.154 -0.3245  0.1960  0.0809
18697SOL    HW158085   8.612   8.202   3.148 -0.2496  0.1121  0.7689
18697SOL    HW258086   8.508   8.102   3.102 -0.1340  0.5585 -0.5107
18698SOL     OW58087   3.500   5.192   5.634  0.6231  0.3065 -0.5567
18698SOL    HW158088   3.450   5.196   5.716  0.9170  0.1471 -0.3698
18698SOL    HW258089   3.574   5.250   5.648  1.5894 -0.9982 -0.0846
18699SOL     OW58090   5.749   0.787   5.232 -0.4101  0.4891 -0.3598
18699SOL    HW158091   5.792   0.708   5.201 -0.2613 -0.2938  1.6557
18699SOL    HW258092   5.767   0.852   5.164  1.8648 -0.4554 -0.7796
18700SOL     OW58093   8.442   2.517   7.214 -0.4532  0.2051 -0.1924
18700SOL    HW158094   8.463   2.470   7.134  0.5150  0.3945 -0.0611
18700SOL    HW258095   8.363   2.474   7.247 -0.8555  0.1237 -1.2325
18701SOL     OW58096   0.253   2.811   1.974 -0.0677 -0.0731  0.4345
18701SOL    HW158097   0.219   2.892   1.934  0.2485  1.5790  3.2550
18701SOL    HW258098   0.217   2.811   2.062 -1.4932 -4.0307  0.0127
18702SOL     OW58099   8.709   4.244   7.987 -0.1216  0.3075  0.1853
18702SOL    HW158100   8.776   4.285   8.042  0.7082  0.9878 -1.3003
18702SOL    HW258101   8.747   4.159   7.963  0.4779  0.9307 -1.1257
18703SOL     OW58102   0.412   6.080   1.777  0.5082  0.0967  1.2027
18703SOL    HW158103   0.502   6.112   1.770  0.7100 -0.4507  1.2431
18703SOL    HW258104   0.361   6.157   1.803  0.9678  0.4063  1.1979
18704SOL     OW58105   5.360   2.012   6.612  0.1207 -0.4467  0.5991
18704SOL    HW158106   5.323   2.100   6.619  1.0313 -0.1646  2.3114
18704SOL    HW258107   5.400   2.011   6.524 -1.3203  0.2418 -0.1012
18705SOL     OW58108   0.755   8.529   2.978 -0.0019  0.0243 -0.8708
18705SOL    HW158109   0.791   8.441   2.985  0.8036  0.4099  0.2276
18705SOL    HW258110   0.796   8.566   2.899  0.7099 -0.1391 -0.5916
18706SOL     OW58111   1.333   6.044   0.765  0.0454 -0.1957 -0.3102
18706SOL    HW158112   1.276   5.974   0.732 -0.9290  0.7098 -0.6031
18706SOL    HW258113   1.290   6.125   0.737  1.7217  0.5319 -0.9391
18707SOL     OW58114   2.835   8.718   8.790  0.2429  0.3639 -0.1437
18707SOL    HW158115   2.830   8.813   8.784  0.1890  0.2797 -2.0400
18707SOL    HW258116   2.915   8.701   8.840 -0.2818  1.3915  1.0952
18708SOL     OW58117   6.264   5.685   5.011 -0.4771  0.5987 -0.0855
18708SOL    HW158118   6.258   5.704   4.917  0.9406  0.4627 -0.2116
18708SOL    HW258119   6.247   5.770   5.053 -0.3265  0.8254 -0.4771
18709SOL     OW58120   4.934   1.079   8.744 -0.2070  0.5272 -0.3112
18709SOL    HW158121   4.886   1.102   8.665 -1.1621 -1.8439 -0.4939
18709SOL    HW258122   4.887   1.004   8.780  1.5618  0.0843  1.2450
18710SOL     OW58123   5.711   8.470   5.246  0.3999 -0.2565  0.2407
18710SOL    HW158124   5.634   8.466   5.189  0.6275  2.2734 -0.3582
18710SOL    HW258125   5.694   8.403   5.313 -2.0468 -0.1726 -0.1960
18711SOL     OW58126   7.589   6.756   3.635 -0.2033  0.5094  0.3361
18711SOL    HW158127   7.532   6.712   3.698 -1.6887  1.4262 -0.3132
18711SOL    HW258128   7.589   6.848   3.661  1.8306  0.3892  0.9153
18712SOL     OW58129   8.124   0.489   2.842 -0.0273 -0.1165 -0.1067
18712SOL    HW158130   8.129   0.575   2.884 -1.7795 -0.9013  1.9069
18712SOL    HW258131   8.155   0.428   2.909 -1.1427 -1.2673 -0.6059
18713SOL     OW58132   1.826   6.246   6.655  0.1114 -0.6755 -0.9600
18713SOL    HW158133   1.917   6.225   6.674  0.4938 -0.4268 -2.3760
18713SOL    HW258134   1.826   6.272   6.563 -1.6245 -2.1795 -1.4509
18714SOL     OW58135   7.262   0.030   4.606 -0.7122  0.2115  0.4873
18714SOL    HW158136   7.233   0.089   4.675  0.4075  1.0925  0.2377
18714SOL    HW258137   7.356   0.047   4.598 -0.1597 -2.2301  0.9997
18715SOL     OW58138   0.484   2.567   8.852 -0.0092  0.4165  0.1143
18715SOL    HW158139   0.469   2.483   8.809 -1.2867  0.3948  0.5483
18715SOL    HW258140   0.469   2.632   8.783  1.6692  0.3145 -0.4078
18716SOL     OW58141   7.047   0.500   0.307  0.2114  0.5212  0.2220
18716SOL    HW158142   7.069   0.408   0.295  0.5254  0.8174 -1.7182
18716SOL    HW258143   7.093   0.525   0.387  0.5897 -0.8490  0.4616
18717SOL     OW58144   3.472   3.447   7.863 -0.0608 -0.7285  0.1946
18717SOL    HW158145   3.422   3.528   7.877 -0.1908 -1.0776  1.8280
18717SOL    HW258146   3.409   3.377   7.880  0.2521 -1.1844 -0.4937
18718SOL     OW58147   8.313   5.953   0.374 -0.2503  0.2539  0.6353
18718SOL    HW158148   8.367   5.901   0.314  0.8315  2.1626 -0.1088
18718SOL    HW258149   8.319   5.907   0.458 -0.3081 -1.4527 -0.2470
18719SOL     OW58150   5.293   0.562   8.887 -0.2545  0.0514 -0.4217
18719SOL    HW158151   5.308   0.603   8.973 -2.0559 -0.6178  0.2741
18719SOL    HW258152   5.203   0.587   8.865  0.0600 -0.0850 -1.9736
18720SOL     OW58153   8.054   0.127   2.894  0.9238  0.3958  0.3590
18720SOL    HW158154   7.962   0.144   2.913  1.0053  1.6912 -0.3479
18720SOL    HW258155   8.100   0.205   2.925  1.8949 -0.5785  1.4540
18721SOL     OW58156   7.649   8.824   5.542 -0.0525  0.0750  0.5884
18721SOL    HW158157   7.661   8.729   5.550 -1.5700 -0.3696 -1.6552
18721SOL    HW258158   7.720   8.853   5.485  0.1433  0.2279  0.9068
18722SOL     OW58159   7.617   5.734   3.435  0.8495  0.0543 -0.5350
18722SOL    HW158160   7.573   5.751   3.352 -3.5029 -0.8191  1.3010
18722SOL    HW258161   7.645   5.820   3.466  1.4297  0.5354 -2.2972
18723SOL     OW58162   7.613   1.468   6.993 -0.0168  0.0122 -0.2173
18723SOL    HW158163   7.679   1.523   6.950  0.8316 -0.2536  0.7211
18723SOL    HW258164   7.535   1.477   6.938  0.4072  1.3567 -0.6292
18724SOL     OW58165   6.922   0.684   6.118  0.3090 -0.4002 -0.0725
18724SOL    HW158166   6.864   0.744   6.165 -0.6474 -1.6323  0.3791
18724SOL    HW258167   6.975   0.643   6.187 -0.9557 -2.0643 -0.0140
18725SOL     OW58168   1.815   1.812   8.691 -0.3975 -0.2301 -0.4870
18725SOL    HW158169   1.784   1.820   8.781  0.1278  2.6960 -0.4667
18725SOL    HW258170   1.738   1.830   8.637 -0.7981 -2.3345 -0.6982
18726SOL     OW58171   0.970   4.154   2.188 -0.3675 -0.9901 -0.0772
18726SOL    HW158172   1.015   4.156   2.103  0.1472  0.9107  0.1987
18726SOL    HW258173   0.905   4.224   2.182  0.7311  0.2503  1.6090
18727SOL     OW58174   2.017   2.284   0.197 -0.4086  0.1251  0.1685
18727SOL    HW158175   2.031   2.229   0.120 -1.9053 -1.3703  0.9128
18727SOL    HW258176   2.014   2.373   0.162 -0.7670 -0.4890 -1.4741
18728SOL     OW58177   3.526   5.291   6.209 -0.2184 -0.2336  0.1775
18728SOL    HW158178   3.556   5.214   6.256 -0.7305 -1.1882 -1.0130
18728SOL    HW258179   3.513   5.261   6.119 -1.6762  0.8941 -0.0369
18729SOL     OW58180   7.701   4.464   3.734  0.3772  0.0189 -0.0647
18729SOL    HW158181   7.766   4.534   3.725  0.3953 -0.1576 -1.5226
18729SOL    HW258182   7.665   4.476   3.822  2.7032 -0.1873  0.9734
18730SOL     OW58183   8.677   4.572   3.124 -0.0074  0.1546  0.7365
18730SOL    HW158184   8.695   4.650   3.177 -0.0087 -0.0438  1.0328
18730SOL    HW258185   8.614   4.522   3.176  0.0974 -0.1082  0.6118
18731SOL     OW58186   1.795   4.290   2.075  0.3821 -0.4535  0.4470
18731SOL    HW158187   1.821   4.202   2.049 -1.4560 -0.1396 -3.0731
18731SOL    HW258188   1.858   4.348   2.033 -1.4219 -0.0191 -1.9282
18732SOL     OW58189   7.300   7.426   3.574 -0.1998  0.1741 -0.3183
18732SOL    HW158190   7.294   7.403   3.481  0.3431 -0.0186 -0.3063
18732SOL    HW258191   7.390   7.455   3.586 -0.4389  0.7830  0.0196
18733SOL     OW58192   5.016   2.085   8.249  0.0181  0.0799  0.3681
18733SOL    HW158193   5.019   1.998   8.211  0.7403  0.3315 -0.1814
18733SOL    HW258194   4.923   2.109   8.247 -0.2720 -0.9292  1.1441
18734SOL     OW58195   4.115   0.647   0.640  0.1826 -0.7279 -0.0169
18734SOL    HW158196   4.124   0.634   0.735  0.6249 -1.4333 -0.1477
18734SOL    HW258197   4.023   0.670   0.628 -0.2511 -2.1049  0.4355
18735SOL     OW58198   6.362   5.844   3.739  0.2799 -0.1642 -0.0617
18735SOL    HW158199   6.298   5.905   3.701  1.2736  0.5473 -0.6479
18735SOL    HW258200   6.363   5.769   3.679 -0.7159 -0.6328  0.4905
18736SOL     OW58201   2.685   4.379   4.823  0.1150  0.0888  0.6772
18736SOL    HW158202   2.760   4.438   4.828 -0.0687  0.3669  0.2068
18736SOL    HW258203   2.641   4.390   4.908 -0.7513  1.7676  0.0704
18737SOL     OW58204   4.265   7.159   3.533 -0.1267 -0.0818 -0.6991
18737SOL    HW158205   4.314   7.226   3.486  1.0795 -0.1611  0.3970
18737SOL    HW258206   4.197   7.209   3.580  0.3733  0.3072 -0.3799
18738SOL     OW58207   0.465   1.544   3.276 -0.6709 -0.6615 -0.2507
18738SOL    HW158208   0.480   1.489   3.353 -1.3063 -1.5269 -0.7270
18738SOL    HW258209   0.550   1.582   3.256 -0.6806  0.3950  1.4848
18739SOL     OW58210   8.807   4.332   7.432 -0.1767  0.3264 -0.3441
18739SOL    HW158211   8.833   4.391   7.361  0.8626 -0.6484 -0.7890
18739SOL    HW258212   8.822   4.244   7.398 -0.1659 -0.1729  0.8880
18740SOL     OW58213   6.340   4.413   0.403  0.3443  0.2546 -0.3349
18740SOL    HW158214   6.289   4.485   0.440  0.5808 -0.0375  0.6020
18740SOL    HW258215   6.427   4.451   0.386  0.5056  0.1713  0.2733
18741SOL     OW58216   3.546   3.326   4.746 -0.3287  0.0657 -0.8874
18741SOL    HW158217   3.508   3.309   4.660  0.3792 -1.9806 -0.8293
18741SOL    HW258218   3.616   3.261   4.755 -0.1696  0.4626  1.0992
18742SOL     OW58219   2.644   2.933   0.407 -0.3596 -0.2175 -0.1339
18742SOL    HW158220   2.715   2.997   0.416 -1.4308  0.7016  3.1512
18742SOL    HW258221   2.672   2.859   0.461 -0.8617 -0.9013 -0.7946
18743SOL     OW58222   1.454   8.524   8.321  0.3462 -0.1765 -0.3723
18743SOL    HW158223   1.409   8.583   8.381 -0.1711  0.9080 -1.7728
18743SOL    HW258224   1.458   8.441   8.368  1.2093  0.9480  1.7288
18744SOL     OW58225   5.005   1.958   3.763 -0.5726 -0.0998 -0.1120
18744SOL    HW158226   5.013   1.938   3.669  2.8252  2.4684 -0.5747
18744SOL    HW258227   4.920   2.000   3.771 -2.1533 -2.7215 -1.4129
18745SOL     OW58228   7.615   1.889   6.047  0.3930  0.3760 -0.4589
18745SOL    HW158229   7.706   1.867   6.066  1.0607  1.9913 -1.6416
18745SOL    HW258230   7.595   1.841   5.967 -0.0119 -0.4501  0.1219
18746SOL     OW58231   2.596   7.433   7.292 -0.2488  0.4975  0.0911
18746SOL    HW158232   2.544   7.445   7.372  0.0512  0.5526  0.2770
18746SOL    HW258233   2.530   7.425   7.223 -0.5116  0.4230  0.3445
18747SOL     OW58234   4.206   5.421   3.819  0.6546  0.3574 -0.2498
18747SOL    HW158235   4.138   5.430   3.753 -0.1922 -0.2915  0.5077
18747SOL    HW258236   4.235   5.330   3.812  0.3461  0.1975  0.4584
18748SOL     OW58237   2.867   7.191   6.083  0.3450 -0.8534 -0.2993
18748SOL    HW158238   2.824   7.243   6.015 -2.2993 -2.9345 -0.3835
18748SOL    HW258239   2.820   7.213   6.163  1.0689 -1.0624  0.1927
18749SOL     OW58240   8.647   4.186   8.382 -0.1504  0.1448  0.1342
18749SOL    HW158241   8.722   4.136   8.350  0.5932  0.5802  1.1336
18749SOL    HW258242   8.582   4.120   8.407  0.5950 -0.3259  0.9082
18750SOL     OW58243   2.637   2.015   2.815  0.3820  0.2435  0.1677
18750SOL    HW158244   2.593   1.934   2.840  2.4186 -1.6131 -1.7662
18750SOL    HW258245   2.651   2.006   2.721 -0.0672  3.3050 -0.2998
18751SOL     OW58246   1.602   6.411   3.186 -0.2352 -0.3042 -0.4625
18751SOL    HW158247   1.529   6.435   3.244  0.1474  0.4214 -0.2725
18751SOL    HW258248   1.619   6.319   3.207 -1.8805 -0.8695 -1.3753
18752SOL     OW58249   4.557   0.113   4.917 -0.8301 -0.1096  0.5392
18752SOL    HW158250   4.644   0.150   4.936 -0.0614  0.6672 -3.4655
18752SOL    HW258251   4.496   0.170   4.964  0.6955  1.7529  0.3919
18753SOL     OW58252   2.846   5.365   5.076  0.2692  0.2167  0.5714
18753SOL    HW158253   2.843   5.406   5.163 -1.0989  0.9705  0.1850
18753SOL    HW258254   2.755   5.348   5.054  0.3066  2.4722 -1.8344
18754SOL     OW58255   6.290   2.353   4.578  0.4591 -0.4031  0.1470
18754SOL    HW158256   6.252   2.381   4.661  0.3312  0.6113 -0.2403
18754SOL    HW258257   6.214   2.344   4.520  0.5943 -0.6518  0.0070
18755SOL     OW58258   4.502   7.694   4.022 -0.6803 -0.1363  0.5342
18755SOL    HW158259   4.550   7.617   3.990  1.3602  0.8302  1.0968
18755SOL    HW258260   4.552   7.724   4.097 -1.5454  1.6249  0.4622
18756SOL     OW58261   1.263   0.802   3.901 -0.2748  0.1998 -0.0243
18756SOL    HW158262   1.330   0.809   3.968 -0.7991 -0.0004  0.5323
18756SOL    HW258263   1.290   0.864   3.833  1.0684 -0.6923 -0.3420
18757SOL     OW58264   5.233   1.070   5.971  0.4720  0.1410 -0.2023
18757SOL    HW158265   5.223   1.017   5.892  0.3181 -1.4849  0.8575
18757SOL    HW258266   5.148   1.064   6.015  0.7202  0.5864  0.3499
18758SOL     OW58267   5.338   0.259   1.524  0.3198  0.0641  0.4066
18758SOL    HW158268   5.245   0.280   1.522 -0.3295 -2.3219  1.7941
18758SOL    HW258269   5.342   0.165   1.543  3.0219  0.1443  0.7229
18759SOL     OW58270   6.354   0.903   0.570 -0.5244 -0.0729  0.1705
18759SOL    HW158271   6.384   0.812   0.563 -0.5971 -0.0058 -1.2728
18759SOL    HW258272   6.423   0.947   0.620 -0.3843 -0.8677  0.7016
18760SOL     OW58273   1.902   7.721   8.622  0.0864 -0.3537  0.9155
18760SOL    HW158274   1.808   7.736   8.637  0.2052 -0.8624  2.2839
18760SOL    HW258275   1.945   7.797   8.660  0.3271 -1.0710  2.1217
18761SOL     OW58276   7.424   7.138   6.561  0.0282  0.1122 -0.0532
18761SOL    HW158277   7.496   7.197   6.542 -0.1519  1.5141  3.0544
18761SOL    HW258278   7.388   7.169   6.644 -3.3185 -1.3418 -0.7850
18762SOL     OW58279   3.649   7.667   0.897  0.3736 -0.5530  0.0633
18762SOL    HW158280   3.730   7.654   0.946 -0.3075 -1.0889  1.0908
18762SOL    HW258281   3.581   7.674   0.965 -0.0609  3.5185 -0.5180
18763SOL     OW58282   2.008   6.954   1.602  0.2363 -0.0965  0.0238
18763SOL    HW158283   1.981   6.896   1.673  2.8928  0.5723  1.7189
18763SOL    HW258284   1.953   7.032   1.613  0.3722 -0.1423  1.1459
18764SOL     OW58285   5.627   4.027   0.634  0.2914  0.1694 -0.0824
18764SOL    HW158286   5.543   4.064   0.660  0.0498 -1.6028  1.9117
18764SOL    HW258287   5.678   4.101   0.602 -1.5298  1.5013  0.0160
18765SOL     OW58288   5.617   5.285   5.548 -0.5459  0.1352 -0.3448
18765SOL    HW158289   5.676   5.210   5.548 -0.9562 -0.2003 -1.3950
18765SOL    HW258290   5.624   5.321   5.637  2.1115  0.8292 -0.7421
18766SOL     OW58291   4.905   1.694   6.130 -0.1306  0.1188 -0.0463
18766SOL    HW158292   4.886   1.647   6.048  1.0342 -0.2824 -0.0974
18766SOL    HW258293   4.835   1.759   6.136  0.3742  0.9011 -1.9336
18767SOL     OW58294   8.146   6.091   5.413 -0.5642  0.5960 -0.2418
18767SOL    HW158295   8.192   6.051   5.339 -1.0592 -0.0852 -0.1940
18767SOL    HW258296   8.069   6.036   5.425 -1.9084  2.2390 -0.9103
18768SOL     OW58297   0.336   6.326   7.919 -0.0658 -0.3335 -0.2079
18768SOL    HW158298   0.306   6.281   7.841 -0.4047  0.2447 -0.4207
18768SOL    HW258299   0.256   6.351   7.965  0.1202 -0.1583  0.0250
18769SOL     OW58300   4.275   0.790   7.268 -0.1758  0.2124 -0.3842
18769SOL    HW158301   4.270   0.695   7.259 -0.8361  0.1407  0.6065
18769SOL    HW258302   4.297   0.804   7.361  1.6896  0.9879 -0.8883
18770SOL     OW58303   2.549   5.981   4.449  0.3793  0.4840 -0.0646
18770SOL    HW158304   2.620   5.983   4.513 -0.3418  1.3519  0.7416
18770SOL    HW258305   2.584   6.030   4.374  0.4202  1.4491  0.5698
18771SOL     OW58306   3.798   1.217   6.060  0.1004 -0.4805  0.0410
18771SOL    HW158307   3.723   1.157   6.055 -2.3564  2.3256  0.0623
18771SOL    HW258308   3.760   1.299   6.091  3.4517  0.8375  1.0319
18772SOL     OW58309   3.986   1.701   6.215 -0.1683  0.0651 -0.6050
18772SOL    HW158310   3.964   1.768   6.279  0.4068  1.8368 -2.1690
18772SOL    HW258311   4.062   1.736   6.168 -0.4580 -1.2177 -2.1213
18773SOL     OW58312   4.549   7.058   2.874 -0.0254  0.0019 -0.3094
18773SOL    HW158313   4.643   7.073   2.885 -0.0319  0.3178 -0.6779
18773SOL    HW258314   4.538   6.964   2.888  0.4557 -0.1646 -0.9709
18774SOL     OW58315   8.020   5.443   1.432 -0.1111  0.1249 -0.1806
18774SOL    HW158316   7.925   5.442   1.447 -0.2553 -0.3326 -1.0386
18774SOL    HW258317   8.055   5.379   1.494 -0.4068  0.0557 -0.0844
18775SOL     OW58318   2.446   5.003   6.993  0.0919 -0.2103 -0.2985
18775SOL    HW158319   2.531   4.990   7.035 -0.7033  0.0451  1.4772
18775SOL    HW258320   2.436   5.098   6.989 -1.2990 -0.1675  2.1886
18776SOL     OW58321   4.375   5.926   7.654 -0.2439  0.2816 -0.9850
18776SOL    HW158322   4.316   5.857   7.685 -0.2705 -0.3039 -2.2757
18776SOL    HW258323   4.320   6.004   7.649 -1.0813 -0.3579 -2.6219
18777SOL     OW58324   8.834   4.543   4.260  0.3248  0.5993 -0.6823
18777SOL    HW158325   8.812   4.523   4.351  1.5117 -0.8559 -0.6706
18777SOL    HW258326   8.749   4.546   4.215 -0.3641  2.4051  0.6217
18778SOL     OW58327   3.547   6.734   4.597  0.4657  0.0283  0.2871
18778SOL    HW158328   3.607   6.809   4.599  1.1077 -0.4148 -1.1219
18778SOL    HW258329   3.602   6.659   4.618  0.4821 -0.4107 -1.2174
18779SOL     OW58330   5.906   8.240   5.722 -0.0208  0.6821  0.0379
18779SOL    HW158331   5.961   8.183   5.668  0.1384  0.1959  0.6957
18779SOL    HW258332   5.957   8.253   5.802 -1.3559 -0.8329  1.2221
18780SOL     OW58333   3.331   2.224   8.854  0.0705  0.4932 -0.1534
18780SOL    HW158334   3.382   2.221   8.935 -0.4960  0.2703  0.2006
18780SOL    HW258335   3.394   2.201   8.786  0.1022 -1.5284  0.4657
18781SOL     OW58336   1.938   5.216   7.127  0.2312  0.6727  0.1747
18781SOL    HW158337   1.982   5.134   7.150  0.4720  0.6283 -0.4179
18781SOL    HW258338   2.005   5.284   7.138 -0.0111  0.8176  0.8143
18782SOL     OW58339   2.144   4.063   3.288  0.3879 -0.9526 -0.3347
18782SOL    HW158340   2.132   4.110   3.371 -0.5862  1.5576 -1.7802
18782SOL    HW258341   2.191   3.984   3.312  2.7611  1.0295  2.2492
18783SOL     OW58342   5.810   5.557   7.790 -0.4281 -0.4147  0.0548
18783SOL    HW158343   5.718   5.571   7.767 -0.7953 -2.1635  0.3071
18783SOL    HW258344   5.858   5.576   7.710 -1.1050 -0.4160 -0.3616
18784SOL     OW58345   6.772   2.547   3.293 -0.5717 -0.3517 -0.2771
18784SOL    HW158346   6.778   2.452   3.299 -0.0073 -0.4284 -1.6811
18784SOL    HW258347   6.748   2.575   3.381  0.4973 -1.6840  0.4775
18785SOL     OW58348   1.302   3.240   0.919 -0.3122  0.7165 -0.8678
18785SOL    HW158349   1.222   3.288   0.899 -0.8907 -0.0093 -0.3403
18785SOL    HW258350   1.291   3.211   1.010  0.8345  1.1601 -0.5588
18786SOL     OW58351   8.830   7.727   4.876 -0.0488  1.3090 -0.2254
18786SOL    HW158352   8.839   7.636   4.905 -1.6841  1.4662  0.8724
18786SOL    HW258353   8.848   7.779   4.954 -1.3857  1.8360 -0.2479
18787SOL     OW58354   8.227   4.622   6.938 -0.0995  0.2558  0.2473
18787SOL    HW158355   8.319   4.624   6.961 -0.2099  1.8305  0.6848
18787SOL    HW258356   8.182   4.591   7.017 -0.0869  1.2474  0.6532
18788SOL     OW58357   7.058   2.249   6.762  0.0809 -0.0243  0.0129
18788SOL    HW158358   7.117   2.242   6.837  1.7022 -0.7674 -1.2856
18788SOL    HW258359   7.092   2.187   6.698 -1.1089  0.7687 -1.4576
18789SOL     OW58360   8.716   8.600   7.845  0.4706  0.2027 -0.5391
18789SOL    HW158361   8.807   8.618   7.819  0.4043  0.3009 -0.7004
18789SOL    HW258362   8.704   8.507   7.826  1.0764 -0.2511  1.0627
18790SOL     OW58363   2.733   4.042   6.983 -0.7618  0.3252  0.3205
18790SOL    HW158364   2.653   4.048   7.035  0.5105  0.3657  2.3608
18790SOL    HW258365   2.742   3.949   6.964  0.2718 -0.1348  2.7570
18791SOL     OW58366   8.136   1.790   5.663 -0.2202  0.0768 -0.5099
18791SOL    HW158367   8.073   1.861   5.657  0.4369  0.7478  0.2427
18791SOL    HW258368   8.153   1.764   5.572  0.4806  1.7605 -0.8959
18792SOL     OW58369   4.640   5.147   4.168  0.1023 -0.7497  0.1326
18792SOL    HW158370   4.624   5.063   4.125 -0.8909  0.6551 -2.4369
18792SOL    HW258371   4.558   5.167   4.213 -0.5391 -0.1460 -1.2201
18793SOL     OW58372   2.187   0.481   7.570  0.6656 -0.2757 -0.3881
18793SOL    HW158373   2.173   0.575   7.579 -0.9249 -0.3867 -1.3609
18793SOL    HW258374   2.257   0.474   7.505  0.5476  0.2366 -0.5749
18794SOL     OW58375   2.297   7.541   4.728 -0.0082  0.1787 -0.3043
18794SOL    HW158376   2.238   7.589   4.671 -0.4422  0.4276  0.3400
18794SOL    HW258377   2.362   7.606   4.756 -0.2692  0.2621  0.1219
18795SOL     OW58378   4.185   6.627   6.043 -0.0951  0.4192  0.0152
18795SOL    HW158379   4.202   6.592   5.956  0.7227  0.0131  0.3260
18795SOL    HW258380   4.129   6.561   6.084  0.9648 -0.2664  0.3959
18796SOL     OW58381   1.084   0.680   8.226 -0.5889  0.1931  0.2100
18796SOL    HW158382   1.174   0.712   8.231 -0.0532 -0.7978 -1.9360
18796SOL    HW258383   1.030   0.757   8.241  0.5667  0.6796  2.2563
18797SOL     OW58384   6.671   8.440   2.829 -0.6022  0.1717 -0.1056
18797SOL    HW158385   6.730   8.443   2.904  0.9484  0.3215 -1.2847
18797SOL    HW258386   6.589   8.477   2.862 -0.5445 -1.3710  1.9747
18798SOL     OW58387   3.121   7.034   8.815 -0.8245  0.2215  0.3115
18798SOL    HW158388   3.166   7.090   8.751 -1.2236 -0.9701 -1.0742
18798SOL    HW258389   3.185   7.021   8.885  0.3988 -0.0803 -0.8246
18799SOL     OW58390   6.797   7.088   4.914  0.3376 -0.0874 -0.3097
18799SOL    HW158391   6.797   6.992   4.916  0.2319 -0.0732  0.6075
18799SOL    HW258392   6.761   7.114   4.998 -0.1353  0.7634 -0.7634
18800SOL     OW58393   8.888   1.003   0.189 -0.9585  0.7783 -0.3984
18800SOL    HW158394   8.937   1.020   0.109 -0.6852 -0.3117 -0.4763
18800SOL    HW258395   8.853   1.089   0.215  1.0876  1.6220 -0.2701
18801SOL     OW58396   3.068   7.048   4.799  0.1953 -0.0289  0.7168
18801SOL    HW158397   2.977   7.020   4.808 -0.4363  1.4934 -0.4137
18801SOL    HW258398   3.066   7.111   4.726  2.3800 -0.9830 -0.2399
18802SOL     OW58399   0.769   5.316   3.428  0.0868  0.1999  0.3705
18802SOL    HW158400   0.839   5.319   3.494  0.1866  0.9345  0.2424
18802SOL    HW258401   0.779   5.398   3.379  0.0022 -0.3245 -0.5466
18803SOL     OW58402   1.120   5.261   4.232  0.7599 -0.4043 -0.0734
18803SOL    HW158403   1.127   5.238   4.139 -0.1341 -0.2437 -0.1877
18803SOL    HW258404   1.114   5.176   4.276  0.6033 -0.4698 -0.2171
18804SOL     OW58405   8.202   5.150   7.577  0.2626 -0.0140 -0.6004
18804SOL    HW158406   8.256   5.071   7.589 -0.5706 -0.4050  0.7001
18804SOL    HW258407   8.124   5.118   7.532 -0.6295 -0.1824  1.0154
18805SOL     OW58408   7.849   3.705   6.348  0.3684  0.5917 -0.2737
18805SOL    HW158409   7.790   3.652   6.295 -0.2994 -0.2476  1.2602
18805SOL    HW258410   7.799   3.727   6.426  1.5197  1.2946  0.2991
18806SOL     OW58411   6.762   6.872   7.539  0.1691 -0.0724  0.0718
18806SOL    HW158412   6.780   6.952   7.589 -0.0178  0.4099 -0.6214
18806SOL    HW258413   6.776   6.897   7.448 -2.4615 -0.0541 -0.4189
18807SOL     OW58414   5.619   1.842   8.664  0.0832 -0.6200 -0.0669
18807SOL    HW158415   5.566   1.794   8.728 -1.5412 -0.5444 -1.2762
18807SOL    HW258416   5.659   1.913   8.714 -2.1499  0.1986  0.7031
18808SOL     OW58417   7.527   5.488   4.415  0.0132  0.2824 -0.5757
18808SOL    HW158418   7.543   5.473   4.508 -1.7575  0.0733 -0.2669
18808SOL    HW258419   7.605   5.533   4.384  0.2563  1.1832  1.2232
18809SOL     OW58420   2.786   5.233   2.251  0.1467  0.2083 -0.0249
18809SOL    HW158421   2.804   5.157   2.196  0.2620 -0.2644  0.6478
18809SOL    HW258422   2.860   5.292   2.236 -0.1132  0.3453 -0.8043
18810SOL     OW58423   4.410   2.966   3.905  0.1832 -0.2968 -0.8493
18810SOL    HW158424   4.425   2.943   3.814 -0.5408 -0.4933 -0.9272
18810SOL    HW258425   4.405   2.882   3.951 -1.9900 -0.3391 -1.0598
18811SOL     OW58426   7.532   7.990   1.683  0.3901 -0.7239 -0.4500
18811SOL    HW158427   7.476   7.913   1.692 -1.5023  0.2852 -2.6537
18811SOL    HW258428   7.530   8.031   1.770 -2.6309 -0.5544 -0.5219
18812SOL     OW58429   3.473   4.743   7.406  0.7995 -0.5883 -0.3165
18812SOL    HW158430   3.416   4.745   7.483 -0.1219 -1.7539 -0.9450
18812SOL    HW258431   3.513   4.830   7.404 -0.8807  0.2289  0.1882
18813SOL     OW58432   6.264   7.552   5.126  0.0172  0.2176  0.1574
18813SOL    HW158433   6.288   7.543   5.034  0.7223  0.0344  0.3550
18813SOL    HW258434   6.265   7.462   5.160 -0.9674  0.2014  0.1730
18814SOL     OW58435   1.531   1.298   6.960 -0.1192 -0.7927 -0.3547
18814SOL    HW158436   1.583   1.251   6.895  1.7621 -0.7902  1.0648
18814SOL    HW258437   1.523   1.236   7.033 -3.5712 -1.4161 -1.0936
18815SOL     OW58438   2.096   7.317   5.617 -0.4399  0.1027  0.5734
18815SOL    HW158439   2.176   7.369   5.608 -0.4985  0.0199 -0.6219
18815SOL    HW258440   2.087   7.303   5.711  0.0628  1.5011  0.8631
18816SOL     OW58441   1.915   4.867   4.008 -0.1233 -0.1340 -0.1256
18816SOL    HW158442   1.842   4.916   4.045  0.2372  1.0287 -0.8745
18816SOL    HW258443   1.961   4.931   3.954 -0.5768 -1.7139 -2.5221
18817SOL     OW58444   4.009   8.689   3.113  0.1511  0.0517  0.2916
18817SOL    HW158445   3.938   8.684   3.049 -0.0744 -3.6579  0.5967
18817SOL    HW258446   3.965   8.710   3.195 -0.5094 -1.1986  0.2860
18818SOL     OW58447   7.694   8.346   7.259 -0.7372 -0.2871 -0.3158
18818SOL    HW158448   7.699   8.428   7.209  0.1880 -0.3451 -0.3187
18818SOL    HW258449   7.751   8.285   7.213  0.6704 -0.1477  1.1665
18819SOL     OW58450   1.955   5.504   6.040 -0.8019  0.0557  0.6731
18819SOL    HW158451   1.861   5.501   6.053 -0.9281  0.2487 -0.1272
18819SOL    HW258452   1.985   5.576   6.096 -1.2494  0.5679  0.2655
18820SOL     OW58453   5.767   8.619   0.071  0.1999 -0.0850  0.0773
18820SOL    HW158454   5.775   8.712   0.090 -0.4415  0.0915 -0.4925
18820SOL    HW258455   5.692   8.590   0.124  1.3341 -0.6191  1.4392
18821SOL     OW58456   6.664   3.113   1.885  0.1955  0.1653  0.1427
18821SOL    HW158457   6.663   3.019   1.901 -0.2696 -0.0438 -1.0153
18821SOL    HW258458   6.743   3.144   1.929  3.6842 -1.7074 -4.0169
18822SOL     OW58459   5.634   2.102   6.208  0.3520 -0.3857  0.1566
18822SOL    HW158460   5.575   2.083   6.281  0.1915 -2.7594 -0.4915
18822SOL    HW258461   5.713   2.051   6.228  1.0096  0.3764 -0.4533
18823SOL     OW58462   4.394   7.653   3.628  0.7380  0.3903 -0.4375
18823SOL    HW158463   4.400   7.566   3.667  0.6423  0.4611 -0.2660
18823SOL    HW258464   4.473   7.660   3.573  0.4207 -0.0455 -0.9491
18824SOL     OW58465   1.075   6.325   0.866 -0.2206  0.3908  0.0478
18824SOL    HW158466   1.024   6.404   0.847  3.3681  2.7434 -0.6366
18824SOL    HW258467   1.148   6.355   0.920  1.9201 -2.2282 -1.1122
18825SOL     OW58468   5.488   3.144   3.176  0.0309 -0.2591  0.1037
18825SOL    HW158469   5.447   3.200   3.242  1.1853 -1.0797  1.5921
18825SOL    HW258470   5.560   3.198   3.141 -1.0113  0.4347 -1.0352
18826SOL     OW58471   6.467   1.212   4.451 -0.4639 -0.4319  0.8813
18826SOL    HW158472   6.551   1.255   4.437  0.0969 -1.9169 -0.8522
18826SOL    HW258473   6.402   1.272   4.415  0.0047  0.1386  0.9833
18827SOL     OW58474   6.904   3.237   8.081  0.7064 -0.0422  0.5113
18827SOL    HW158475   6.811   3.255   8.068  0.8737  0.2187 -0.3775
18827SOL    HW258476   6.912   3.143   8.070  0.5887 -0.0314  0.3329
18828SOL     OW58477   0.403   2.308   8.387  0.4496  0.5361  0.5760
18828SOL    HW158478   0.413   2.242   8.319  0.1661  2.8017 -1.7953
18828SOL    HW258479   0.311   2.334   8.382  0.3951  0.6803  1.9416
18829SOL     OW58480   1.557   3.179   1.991  0.4928  0.6224 -0.1461
18829SOL    HW158481   1.512   3.140   1.916 -0.3534 -0.1313  0.7353
18829SOL    HW258482   1.487   3.219   2.043  1.0075  0.6661  0.5244
18830SOL     OW58483   0.601   3.608   2.393  0.6563 -0.4140  0.3492
18830SOL    HW158484   0.587   3.681   2.333 -0.9497 -0.2356  0.8852
18830SOL    HW258485   0.685   3.570   2.367  0.3782  0.1572 -1.4613
18831SOL     OW58486   5.015   0.774   4.240  0.1864 -0.0801 -0.2840
18831SOL    HW158487   5.069   0.808   4.311  0.7470  1.0832 -1.2248
18831SOL    HW258488   5.078   0.749   4.172 -0.3855  0.1991 -0.9324
18832SOL     OW58489   4.298   2.793   0.905  0.4529  0.0905  0.0105
18832SOL    HW158490   4.371   2.801   0.844  1.4884  0.0836  1.2177
18832SOL    HW258491   4.310   2.865   0.967 -1.2733  0.8462 -0.4717
18833SOL     OW58492   7.444   7.768   6.374 -0.1594  0.1996 -0.2807
18833SOL    HW158493   7.496   7.797   6.299 -1.5644 -0.1422 -1.4188
18833SOL    HW258494   7.459   7.674   6.379 -0.7571  0.0767 -0.7001
18834SOL     OW58495   1.484   1.834   2.726 -0.3170  0.2804 -0.3431
18834SOL    HW158496   1.533   1.790   2.656 -0.7023 -0.9027  0.1144
18834SOL    HW258497   1.403   1.784   2.733 -0.8045  1.1347  0.1320
18835SOL     OW58498   3.747   4.117   0.851 -0.0889 -0.0777  0.5885
18835SOL    HW158499   3.689   4.115   0.776 -0.4274 -2.5917  0.8375
18835SOL    HW258500   3.827   4.072   0.821  0.8262  1.2270  0.9691
18836SOL     OW58501   1.299   0.569   6.466 -1.4141 -0.3700 -0.2999
18836SOL    HW158502   1.383   0.558   6.422 -2.0500 -0.4948 -1.5264
18836SOL    HW258503   1.239   0.514   6.416 -2.1344 -0.6575  0.8529
18837SOL     OW58504   3.373   1.737   6.435  0.3400 -0.0709  0.2109
18837SOL    HW158505   3.317   1.698   6.369 -0.4876  1.0446  0.2188
18837SOL    HW258506   3.398   1.665   6.492 -0.1196 -0.7886 -0.4810
18838SOL     OW58507   8.717   1.387   7.220  0.9655 -0.5992  0.5284
18838SOL    HW158508   8.698   1.377   7.127 -0.2601 -1.5170  0.8482
18838SOL    HW258509   8.699   1.479   7.239 -0.0899 -0.7189  0.1336
18839SOL     OW58510   6.330   0.048   4.861  0.0215 -0.0635 -0.2197
18839SOL    HW158511   6.373   0.057   4.946 -0.1631  0.4928 -0.1796
18839SOL    HW258512   6.358   0.125   4.812 -1.7536  0.8775  0.1841
18840SOL     OW58513   3.996   4.845   4.405  0.4370 -0.0632 -0.3266
18840SOL    HW158514   4.012   4.883   4.491  0.4200 -2.2258  0.6861
18840SOL    HW258515   3.904   4.818   4.407  0.4019 -0.0204 -1.0708
18841SOL     OW58516   8.049   6.158   1.693  0.1327 -0.5723  0.1226
18841SOL    HW158517   7.969   6.132   1.739  0.4606 -0.7220  0.6189
18841SOL    HW258518   8.087   6.226   1.749 -0.6450  0.9162 -1.0815
18842SOL     OW58519   6.515   8.155   4.100  0.1012  0.4592  0.3108
18842SOL    HW158520   6.581   8.154   4.170  0.5713  2.2133 -0.0610
18842SOL    HW258521   6.492   8.247   4.090  0.3832  0.3332 -2.1676
18843SOL     OW58522   3.133   1.563   0.121 -0.2273 -0.4861  0.0939
18843SOL    HW158523   3.185   1.643   0.124 -0.3600 -0.2244 -2.6290
18843SOL    HW258524   3.150   1.521   0.206  1.2423  1.5209  0.8826
18844SOL     OW58525   2.269   4.812   2.858  0.2983 -0.3400  0.6291
18844SOL    HW158526   2.179   4.810   2.890  0.5286  1.9487  1.6513
18844SOL    HW258527   2.323   4.801   2.936  0.8447  2.6054  0.8167
18845SOL     OW58528   5.805   8.130   4.526 -0.1342  0.3472 -0.0306
18845SOL    HW158529   5.889   8.140   4.482  0.0191  2.2203  0.6223
18845SOL    HW258530   5.818   8.056   4.585  1.0054  0.5043 -0.0607
18846SOL     OW58531   8.553   4.008   5.738  0.0063 -0.1756  0.0874
18846SOL    HW158532   8.639   3.969   5.755  0.5279  1.0786  0.3905
18846SOL    HW258533   8.493   3.956   5.792  0.8075 -0.0528  1.1363
18847SOL     OW58534   8.126   1.815   6.623  0.2919 -0.2338  0.2317
18847SOL    HW158535   8.193   1.874   6.589  0.4637  1.2162  2.8553
18847SOL    HW258536   8.079   1.867   6.688 -1.2587 -2.2449  0.8246
18848SOL     OW58537   1.050   6.615   6.351  0.1215  0.4749 -0.2810
18848SOL    HW158538   0.971   6.608   6.404  0.7810  0.6875  0.7524
18848SOL    HW258539   1.018   6.622   6.261 -0.9898 -0.5336  0.0174
18849SOL     OW58540   0.944   2.571   1.150 -0.4899  0.3945 -0.5034
18849SOL    HW158541   0.882   2.606   1.214 -1.8348  0.9672 -2.0548
18849SOL    HW258542   0.892   2.556   1.071  0.5357 -2.7514 -0.7375
18850SOL     OW58543   4.336   0.376   6.609 -0.2073  0.1868 -0.5585
18850SOL    HW158544   4.284   0.298   6.628  1.4348 -1.2104 -1.5469
18850SOL    HW258545   4.357   0.369   6.516 -0.7142  2.2908 -0.8938
18851SOL     OW58546   4.893   2.141   6.317  0.7418  0.1714  0.0578
18851SOL    HW158547   4.861   2.135   6.227  0.6560 -1.8884  0.1910
18851SOL    HW258548   4.981   2.105   6.314 -0.1564 -2.3174  1.1802
18852SOL     OW58549   5.022   4.745   8.848  0.5009 -0.1188  0.0221
18852SOL    HW158550   5.043   4.838   8.855  1.5838 -0.2917 -0.7119
18852SOL    HW258551   4.966   4.738   8.771  0.1227 -0.0396  0.2857
18853SOL     OW58552   4.667   5.958   6.174 -0.4716  0.4059 -0.6207
18853SOL    HW158553   4.724   6.016   6.122  1.0962 -1.3087 -0.9506
18853SOL    HW258554   4.677   5.989   6.264  0.5981  0.4685 -0.7440
18854SOL     OW58555   8.434   8.709   6.002 -0.6370 -0.1922  0.7923
18854SOL    HW158556   8.348   8.728   6.040 -0.6662  1.2652  0.0348
18854SOL    HW258557   8.495   8.717   6.075 -0.8241  1.5055  0.7815
18855SOL     OW58558   5.599   5.803   6.594 -0.9671 -0.0006  0.3411
18855SOL    HW158559   5.514   5.797   6.550 -1.4031  0.0693  1.1487
18855SOL    HW258560   5.605   5.721   6.643  0.8765 -1.5153 -2.1599
18856SOL     OW58561   3.910   1.030   1.132  0.3394  0.3238 -0.1134
18856SOL    HW158562   3.935   0.937   1.133 -0.7758  0.0138  1.0275
18856SOL    HW258563   3.886   1.047   1.041  1.1837 -0.3250 -0.4741
18857SOL     OW58564   1.166   0.737   2.742  0.0737 -0.0505 -0.2389
18857SOL    HW158565   1.260   0.719   2.736 -0.1536 -1.0805 -0.8415
18857SOL    HW258566   1.155   0.819   2.695  0.7232  0.2874  0.1734
18858SOL     OW58567   1.049   2.207   2.873  0.1644 -0.6833  0.0345
18858SOL    HW158568   1.113   2.278   2.876 -2.2924  1.6709  2.4602
18858SOL    HW258569   0.977   2.241   2.820 -0.6427 -1.7744  0.3821
18859SOL     OW58570   6.710   6.805   5.698 -0.3493 -1.0798  0.0809
18859SOL    HW158571   6.725   6.736   5.763 -3.3628 -0.3721  1.7285
18859SOL    HW258572   6.615   6.814   5.694 -0.1497  1.1059 -2.1571
18860SOL     OW58573   2.195   7.756   8.371 -0.1013 -0.0368  0.0782
18860SOL    HW158574   2.214   7.720   8.458 -1.7115 -0.4374  0.3057
18860SOL    HW258575   2.173   7.680   8.318 -0.1254  0.3018 -0.3967
18861SOL     OW58576   6.191   6.831   4.891  0.5435  0.1450  0.2580
18861SOL    HW158577   6.236   6.833   4.807 -0.1744 -0.7368 -0.1678
18861SOL    HW258578   6.148   6.746   4.893  0.2746  0.2913  1.3756
18862SOL     OW58579   2.118   6.705   7.859 -0.0151 -0.5186  0.0360
18862SOL    HW158580   2.058   6.756   7.914  0.3860 -2.4927  2.4792
18862SOL    HW258581   2.061   6.646   7.810 -0.2369 -0.4101  0.1592
18863SOL     OW58582   7.684   3.670   1.861  0.3629  0.2700 -0.0343
18863SOL    HW158583   7.755   3.654   1.923  0.7233  0.2141 -0.4584
18863SOL    HW258584   7.642   3.750   1.893  1.2008  0.8318 -0.3141
18864SOL     OW58585   2.792   2.433   7.185 -0.3952  0.6018 -0.1248
18864SOL    HW158586   2.780   2.438   7.280 -0.8989 -0.3160 -0.1273
18864SOL    HW258587   2.867   2.490   7.167  1.3752 -1.1845  1.1385
18865SOL     OW58588   3.993   4.730   7.400  0.1813 -0.0833  0.1137
18865SOL    HW158589   4.037   4.661   7.450  0.6088  0.1771  0.1032
18865SOL    HW258590   3.903   4.698   7.390  0.3912 -0.6783  0.0391
18866SOL     OW58591   3.415   0.449   7.083  0.5416 -0.2830 -0.1384
18866SOL    HW158592   3.479   0.379   7.097  1.0296  0.1486 -0.1884
18866SOL    HW258593   3.443   0.493   7.003  0.3201  0.0541 -0.0360
18867SOL     OW58594   0.758   8.599   2.491 -0.0119  0.8870 -0.3469
18867SOL    HW158595   0.788   8.628   2.405 -1.3842  0.6700 -0.9256
18867SOL    HW258596   0.718   8.514   2.474  0.8160  0.2731  0.7274
18868SOL     OW58597   6.928   0.096   3.054 -0.2452  0.2530  0.2274
18868SOL    HW158598   6.910   0.167   3.116 -2.4928 -0.0981  0.0781
18868SOL    HW258599   6.851   0.095   2.997 -0.5348 -2.6234  0.5273
18869SOL     OW58600   3.648   0.248   5.901 -0.5798  0.4641 -0.4409
18869SOL    HW158601   3.687   0.186   5.962 -2.7426  0.4434  1.0538
18869SOL    HW258602   3.624   0.195   5.825 -0.9333 -0.2356  0.1470
18870SOL     OW58603   1.760   8.544   7.316  0.0046 -0.2673  0.3124
18870SOL    HW158604   1.754   8.517   7.224  0.8529 -0.9741  0.4503
18870SOL    HW258605   1.695   8.614   7.325  0.7864  0.7093 -1.1553
18871SOL     OW58606   0.717   7.677   4.517  0.4163 -0.7082  0.1694
18871SOL    HW158607   0.767   7.729   4.579 -0.3130  1.6880 -1.1090
18871SOL    HW258608   0.779   7.658   4.446 -0.3146  2.2696 -1.4209
18872SOL     OW58609   6.937   3.567   2.173 -0.3323  0.0691  0.4792
18872SOL    HW158610   6.859   3.566   2.117  0.1644 -1.4040 -0.2319
18872SOL    HW258611   6.903   3.562   2.262 -1.0857  0.9429  0.2570
18873SOL     OW58612   5.507   1.905   6.853 -0.0536  0.2290  0.0021
18873SOL    HW158613   5.461   1.940   6.777  0.6805  0.0657 -0.5262
18873SOL    HW258614   5.583   1.963   6.863 -0.1121  0.2169  0.5851
18874SOL     OW58615   6.729   5.177   3.596  0.0332  0.2879 -0.2945
18874SOL    HW158616   6.720   5.189   3.501 -1.9974 -1.7982 -0.4434
18874SOL    HW258617   6.752   5.085   3.607 -1.3523  0.0889  1.2683
18875SOL     OW58618   6.024   1.847   3.850  0.1003  0.3102 -0.2560
18875SOL    HW158619   6.034   1.816   3.940 -0.6412 -0.3981 -0.4012
18875SOL    HW258620   5.969   1.781   3.808 -1.8738  1.9853 -0.4816
18876SOL     OW58621   6.834   1.992   5.339  0.4619 -0.2091 -0.6691
18876SOL    HW158622   6.903   2.013   5.276  1.2041  0.5736  0.3491
18876SOL    HW258623   6.810   2.077   5.376  0.4840 -0.7041  0.5244
18877SOL     OW58624   0.973   4.034   5.793  0.6555 -0.8282 -0.0564
18877SOL    HW158625   0.914   3.989   5.733  0.2666 -0.9749  0.4358
18877SOL    HW258626   0.981   4.122   5.757  0.5781 -0.9721 -0.4311
18878SOL     OW58627   6.183   6.309   4.793  0.3423  0.1119  0.2790
18878SOL    HW158628   6.129   6.291   4.716  0.6405 -1.5415  0.4125
18878SOL    HW258629   6.244   6.235   4.797  1.5566  1.1195  1.0511
18879SOL     OW58630   7.045   4.152   0.485  0.3622 -0.4692  0.3628
18879SOL    HW158631   7.024   4.169   0.393 -1.8843 -0.6540  0.7676
18879SOL    HW258632   7.131   4.192   0.498 -0.1211  1.3155 -1.3292
18880SOL     OW58633   3.519   1.345   5.583  0.8378 -0.4511 -0.3417
18880SOL    HW158634   3.603   1.317   5.546  0.0977 -0.8522 -1.8020
18880SOL    HW258635   3.457   1.277   5.555  0.4024 -1.4109  2.6597
18881SOL     OW58636   3.470   4.670   4.115 -0.2699 -0.1280 -0.2287
18881SOL    HW158637   3.544   4.647   4.060  0.5473 -1.4911  1.3681
18881SOL    HW258638   3.412   4.720   4.057  2.0565  1.3600 -1.3957
18882SOL     OW58639   2.802   7.653   8.543  0.1630  0.1378  0.1908
18882SOL    HW158640   2.880   7.650   8.598  1.1087 -0.5838 -1.1264
18882SOL    HW258641   2.821   7.721   8.477 -0.5623  0.3551  0.1882
18883SOL     OW58642   0.689   0.465   4.330 -0.1594  0.3320 -0.0044
18883SOL    HW158643   0.742   0.538   4.298  0.5464 -0.3342 -0.4009
18883SOL    HW258644   0.752   0.394   4.345 -0.7291  0.0295  1.0782
18884SOL     OW58645   0.377   1.504   6.413 -0.4189 -0.0687  0.5425
18884SOL    HW158646   0.352   1.592   6.384 -0.7658 -0.4051 -0.2020
18884SOL    HW258647   0.362   1.505   6.508 -2.2034  0.1043  0.2943
18885SOL     OW58648   8.161   2.903   1.233 -0.8876 -0.0012 -0.4332
18885SOL    HW158649   8.208   2.830   1.192  0.7844  0.5127  0.5012
18885SOL    HW258650   8.217   2.931   1.305 -2.4596  0.9196  0.4944
18886SOL     OW58651   5.644   0.278   0.293  0.0422 -0.0014 -0.0549
18886SOL    HW158652   5.585   0.314   0.227 -1.1686  1.0467  1.5309
18886SOL    HW258653   5.642   0.184   0.278 -2.3309 -0.0360  0.1543
18887SOL     OW58654   2.325   2.764   2.098  0.1447  0.3327  0.5059
18887SOL    HW158655   2.401   2.797   2.050 -0.3326 -0.0600 -0.5452
18887SOL    HW258656   2.362   2.719   2.174  0.8674  2.0018  1.1863
18888SOL     OW58657   5.769   6.081   1.783  0.3535  0.4541 -0.3453
18888SOL    HW158658   5.818   6.072   1.701 -0.6617 -1.5878 -0.7819
18888SOL    HW258659   5.708   6.153   1.767  3.3614  3.4529  0.3868
18889SOL     OW58660   4.315   5.269   4.707 -0.0002 -0.8890  0.0654
18889SOL    HW158661   4.405   5.252   4.734 -0.5250 -0.3277  2.3723
18889SOL    HW258662   4.306   5.364   4.707 -0.7578 -0.9519  0.4483
18890SOL     OW58663   3.371   3.322   3.162 -0.1143  0.0744  0.1995
18890SOL    HW158664   3.296   3.381   3.170 -0.2680 -0.1951  0.8330
18890SOL    HW258665   3.377   3.303   3.069 -1.6460 -0.9279  0.2669
18891SOL     OW58666   7.146   4.825   1.133  0.1246 -0.5304 -0.0811
18891SOL    HW158667   7.133   4.757   1.068 -1.4953 -0.1616 -0.1943
18891SOL    HW258668   7.080   4.807   1.200  1.1737 -0.3838  1.0313
18892SOL     OW58669   6.643   5.349   2.759  0.2168  0.7754 -0.1639
18892SOL    HW158670   6.731   5.341   2.721 -0.4403  1.2189 -1.8335
18892SOL    HW258671   6.635   5.441   2.782  1.1276  0.2812  2.4759
18893SOL     OW58672   7.909   1.167   3.241  0.0579 -0.2497  0.4484
18893SOL    HW158673   7.933   1.249   3.286 -1.1998  1.2993 -1.5397
18893SOL    HW258674   7.835   1.133   3.292 -0.7164  0.9504  0.1655
18894SOL     OW58675   4.250   6.877   5.920 -0.4372 -0.2865  0.3186
18894SOL    HW158676   4.176   6.938   5.916  0.1163  0.3447 -0.9327
18894SOL    HW258677   4.218   6.804   5.973 -1.8033  0.1679  0.1644
18895SOL     OW58678   2.526   3.667   8.162 -0.2583 -0.0662 -0.3391
18895SOL    HW158679   2.564   3.617   8.089  0.7502  1.7838 -1.1540
18895SOL    HW258680   2.447   3.618   8.186 -0.3242 -1.0280 -2.3184
18896SOL     OW58681   7.265   8.368   0.065  0.9970 -0.0570 -0.2941
18896SOL    HW158682   7.296   8.340   0.151  0.8827 -2.9159 -1.1007
18896SOL    HW258683   7.191   8.426   0.085  1.3687 -0.1420  1.5292
18897SOL     OW58684   2.603   4.719   7.825 -0.3358 -0.4205  1.1631
18897SOL    HW158685   2.567   4.688   7.741 -0.3875 -0.6559  1.2724
18897SOL    HW258686   2.642   4.641   7.864  0.6419 -0.0882  0.8661
18898SOL     OW58687   2.679   4.953   7.129 -0.3028  0.1210  0.1322
18898SOL    HW158688   2.759   5.006   7.134 -0.0616 -0.1650 -0.5237
18898SOL    HW258689   2.647   4.950   7.219  0.9745 -0.5854  0.5937
18899SOL     OW58690   8.724   2.676   6.384  0.0586 -0.3387 -0.0111
18899SOL    HW158691   8.642   2.724   6.373  0.0074 -0.5358 -0.5275
18899SOL    HW258692   8.697   2.586   6.402  0.1292 -0.8070 -1.9599
18900SOL     OW58693   1.051   8.106   0.048  0.0799 -0.0362  0.0812
18900SOL    HW158694   1.140   8.073   0.065  0.3731 -0.2782 -1.7523
18900SOL    HW258695   0.994   8.031   0.066  0.1983  0.1617  1.4048
18901SOL     OW58696   5.163   2.820   8.826  0.1984  0.0388  0.3986
18901SOL    HW158697   5.231   2.807   8.759 -0.4844  1.2841 -0.5659
18901SOL    HW258698   5.200   2.885   8.886  0.3958 -0.3064  0.6554
18902SOL     OW58699   4.083   2.925   3.254  0.5461 -0.1523 -0.0495
18902SOL    HW158700   4.145   2.888   3.191 -0.2556 -0.3925 -0.7162
18902SOL    HW258701   4.081   2.862   3.326 -0.0719 -0.9190 -0.7285
18903SOL     OW58702   2.180   2.772   5.633  0.2824 -0.0218  0.6338
18903SOL    HW158703   2.185   2.771   5.537  2.3416  2.1491  0.6380
18903SOL    HW258704   2.198   2.681   5.658 -3.1367 -1.3240 -1.0080
18904SOL     OW58705   0.473   0.472   4.186 -0.5441  0.9393  0.5805
18904SOL    HW158706   0.535   0.450   4.256  0.1013 -1.4271 -0.6258
18904SOL    HW258707   0.527   0.481   4.108 -1.6579 -1.3029 -0.5244
18905SOL     OW58708   7.089   4.196   8.033 -0.3195 -0.6786  0.3014
18905SOL    HW158709   7.010   4.241   8.002  1.6611  2.6951 -0.3827
18905SOL    HW258710   7.115   4.244   8.111  1.5944 -1.0111 -0.0758
18906SOL     OW58711   0.012   0.616   7.234  1.2905 -1.2712  0.1917
18906SOL    HW158712   0.083   0.676   7.256  0.4054 -0.1681  0.1457
18906SOL    HW258713  -0.065   0.652   7.278  0.2540 -1.0683 -1.6685
18907SOL     OW58714   3.866   5.388   1.735  0.0733  0.1812  0.5732
18907SOL    HW158715   3.940   5.364   1.790 -0.4698 -1.2097  0.7418
18907SOL    HW258716   3.801   5.320   1.752 -1.1013  1.1633  0.1551
18908SOL     OW58717   6.764   8.341   8.377 -0.0751 -0.5471 -0.6811
18908SOL    HW158718   6.684   8.302   8.343  0.5006  0.3946 -3.3394
18908SOL    HW258719   6.736   8.424   8.417 -0.6352 -1.2119  0.3658
18909SOL     OW58720   6.009   8.314   4.353 -0.1845  0.3854 -0.3281
18909SOL    HW158721   6.036   8.369   4.279  0.3145 -0.9350 -1.1822
18909SOL    HW258722   5.996   8.227   4.314 -1.6318  0.0461  0.8421
18910SOL     OW58723   1.811   1.632   2.235 -0.0264  0.0081 -0.1898
18910SOL    HW158724   1.857   1.549   2.243  0.1120 -0.2327 -2.5993
18910SOL    HW258725   1.724   1.609   2.203 -0.0665  0.7411 -0.6547
18911SOL     OW58726   0.043   3.489   2.299 -0.2247 -0.0081  0.3263
18911SOL    HW158727   0.061   3.398   2.274 -0.9975 -0.0551 -0.1105
18911SOL    HW258728  -0.028   3.482   2.364 -1.0428  0.3186 -0.5034
18912SOL     OW58729   0.880   1.614   6.802  0.1088 -0.2492 -0.2148
18912SOL    HW158730   0.957   1.579   6.848  0.0920  0.9824  0.8246
18912SOL    HW258731   0.808   1.605   6.865 -0.2038  0.2217 -0.4969
18913SOL     OW58732   2.282   4.721   7.129  0.0903 -0.5243 -0.1939
18913SOL    HW158733   2.201   4.669   7.133 -1.1347  1.2898  0.1026
18913SOL    HW258734   2.274   4.770   7.047  1.1394 -0.6887 -0.3999
18914SOL     OW58735   8.760   2.203   5.457 -0.1789 -0.4390 -0.1559
18914SOL    HW158736   8.682   2.154   5.432  0.3791 -1.6059  0.3067
18914SOL    HW258737   8.820   2.137   5.492 -0.0902  0.7979  2.2592
18915SOL     OW58738   1.233   7.187   1.735 -0.4245  0.4128 -0.3580
18915SOL    HW158739   1.230   7.141   1.651  0.2015  1.0782 -0.7534
18915SOL    HW258740   1.245   7.279   1.712 -3.6086  1.1494  0.3280
18916SOL     OW58741   6.061   4.459   3.179  0.1243  0.0873  0.7277
18916SOL    HW158742   5.998   4.391   3.152  1.1136  0.3060 -2.5039
18916SOL    HW258743   6.138   4.410   3.208  0.0951 -0.1801  0.3635
18917SOL     OW58744   7.697   0.719   0.942  0.2898 -0.1990 -0.0320
18917SOL    HW158745   7.701   0.664   0.864 -0.0056  0.6547 -0.6706
18917SOL    HW258746   7.687   0.658   1.015 -1.0559 -0.9376 -0.8065
18918SOL     OW58747   1.362   3.526   4.919  0.4580  0.5026 -0.1710
18918SOL    HW158748   1.452   3.546   4.895  0.1971  0.0793 -1.5964
18918SOL    HW258749   1.366   3.440   4.961  1.0273  1.5995  2.1534
18919SOL     OW58750   7.026   7.578   0.181 -0.0520  0.8891 -0.2142
18919SOL    HW158751   6.954   7.520   0.206  0.5902  0.3357  0.3634
18919SOL    HW258752   6.984   7.664   0.169 -0.6789  0.7722  0.9921
18920SOL     OW58753   0.777   8.859   4.209 -0.1415 -0.0124  0.4020
18920SOL    HW158754   0.850   8.918   4.193 -0.2906 -0.0505 -0.4730
18920SOL    HW258755   0.699   8.909   4.184 -0.3031 -0.4259  0.0709
18921SOL     OW58756   7.388   6.466   2.087 -0.0995 -0.4089  0.1498
18921SOL    HW158757   7.464   6.480   2.143  0.3213  0.4738 -0.5991
18921SOL    HW258758   7.409   6.389   2.035  0.7876  0.4349 -0.8071
18922SOL     OW58759   0.201   0.395   4.385  0.7023 -0.1404  0.5703
18922SOL    HW158760   0.216   0.379   4.478  3.0522  0.1447  0.2968
18922SOL    HW258761   0.234   0.483   4.370  1.3458 -0.5830 -0.7354
18923SOL     OW58762   6.328   0.726   3.003  0.1916 -1.0835 -0.3334
18923SOL    HW158763   6.376   0.698   3.080  0.4817 -1.7289 -0.7436
18923SOL    HW258764   6.264   0.657   2.986 -0.7113 -0.3709  0.0364
18924SOL     OW58765   7.059   6.255   2.843 -0.3984  0.4783  0.3713
18924SOL    HW158766   7.043   6.322   2.778  1.8952  0.9223  0.1879
18924SOL    HW258767   7.064   6.173   2.793 -1.9510  0.3060  0.4474
18925SOL     OW58768   6.896   3.331   7.092 -0.1592  0.0433 -0.6150
18925SOL    HW158769   6.851   3.357   7.172  0.5816 -0.2693 -0.0844
18925SOL    HW258770   6.954   3.260   7.119 -1.8342 -1.9676 -1.9246
18926SOL     OW58771   0.357   4.394   6.322  0.3494  0.1669  0.3414
18926SOL    HW158772   0.422   4.457   6.352  1.3914 -0.3896 -0.6594
18926SOL    HW258773   0.291   4.447   6.276  0.3958  0.6779  0.8558
18927SOL     OW58774   2.388   5.735   7.852 -0.6357  0.6088  0.4086
18927SOL    HW158775   2.464   5.708   7.800 -0.7243 -0.2515  0.7104
18927SOL    HW258776   2.396   5.687   7.934  0.0547  2.7208  1.6603
18928SOL     OW58777   1.887   2.705   3.998 -0.1466  1.0227  0.2699
18928SOL    HW158778   1.907   2.752   3.917 -1.4349 -0.7207 -1.1345
18928SOL    HW258779   1.951   2.738   4.061  1.8457  1.4237 -1.8167
18929SOL     OW58780   2.217   1.837   4.937  0.4236  0.0779  0.4151
18929SOL    HW158781   2.288   1.803   4.881  1.3047  0.3264  1.3563
18929SOL    HW258782   2.175   1.760   4.972  1.4731 -0.0885  1.3687
18930SOL     OW58783   3.551   1.504   2.946 -0.2154 -0.0610  0.2054
18930SOL    HW158784   3.508   1.439   3.002  2.5932 -1.5180  0.8220
18930SOL    HW258785   3.525   1.479   2.857 -2.3341  0.4747  0.6117
18931SOL     OW58786   4.099   5.174   0.080 -0.5082  0.0237  0.7964
18931SOL    HW158787   4.026   5.226   0.114  0.3633  1.5872  0.3909
18931SOL    HW258788   4.058   5.096   0.043 -2.1241  1.4374 -0.5638
18932SOL     OW58789   5.884   4.354   1.110 -0.3288  0.2800  0.3658
18932SOL    HW158790   5.929   4.355   1.194  2.0103  0.9167 -0.8166
18932SOL    HW258791   5.948   4.317   1.049 -1.5483  0.8744 -1.3441
18933SOL     OW58792   8.358   3.651   3.686  0.1277  0.3801 -0.0917
18933SOL    HW158793   8.317   3.649   3.772 -1.2470  1.2275 -0.6909
18933SOL    HW258794   8.443   3.608   3.699  0.1131  0.8175  1.7467
18934SOL     OW58795   2.779   3.795   3.943  0.1245  0.4527 -0.2843
18934SOL    HW158796   2.818   3.711   3.968  0.2059  0.4459 -0.4379
18934SOL    HW258797   2.827   3.823   3.865 -0.3561  0.3077 -0.6403
18935SOL     OW58798   6.707   0.102   7.042  0.0360  0.0689 -0.5330
18935SOL    HW158799   6.782   0.068   6.992  0.6345  0.1044  0.3271
18935SOL    HW258800   6.661   0.158   6.979  1.4098  1.0220 -0.7369
18936SOL     OW58801   2.348   2.538   4.608 -0.2994  0.2479  0.1632
18936SOL    HW158802   2.395   2.457   4.590 -2.5491 -1.5045  1.6620
18936SOL    HW258803   2.401   2.583   4.674  1.7479  0.8306 -1.7664
18937SOL     OW58804   1.683   7.319   8.236 -0.4509 -0.3192  0.2101
18937SOL    HW158805   1.635   7.361   8.307 -0.3789 -3.0143  2.0378
18937SOL    HW258806   1.775   7.338   8.254 -0.4907 -0.2593  0.3515
18938SOL     OW58807   2.857   6.053   3.278  0.1818  0.1777 -0.3155
18938SOL    HW158808   2.781   6.110   3.281  0.8904  1.3357 -2.6265
18938SOL    HW258809   2.929   6.108   3.308  0.3347 -0.5660  0.7391
18939SOL     OW58810   7.152   8.220   1.860  0.2383  0.0400  0.0564
18939SOL    HW158811   7.100   8.258   1.788  1.5913  1.3275 -0.2997
18939SOL    HW258812   7.133   8.276   1.935  0.6907  0.2049  0.0541
18940SOL     OW58813   4.947   1.583   4.461 -0.0093 -0.5492 -0.0052
18940SOL    HW158814   4.917   1.494   4.441  0.0044 -1.0733  2.1136
18940SOL    HW258815   5.035   1.572   4.495 -1.1476 -0.1971  3.4463
18941SOL     OW58816   3.882   6.727   0.968  0.6137  0.2233  0.1109
18941SOL    HW158817   3.833   6.793   0.919 -0.7740 -0.8128  0.0511
18941SOL    HW258818   3.948   6.777   1.015 -0.8397  1.7570  0.6161
18942SOL     OW58819   3.841   3.361   2.351  0.4565  0.2013 -0.0758
18942SOL    HW158820   3.753   3.385   2.380  0.3824 -2.4514  2.3236
18942SOL    HW258821   3.896   3.434   2.380 -0.4860  0.2766  1.6829
18943SOL     OW58822   0.071   2.448   2.555 -0.4592  0.5453 -0.3018
18943SOL    HW158823   0.077   2.511   2.627 -1.0683 -1.6791  1.7851
18943SOL    HW258824  -0.002   2.480   2.502 -0.4700  1.8174  0.4273
18944SOL     OW58825   0.328   0.460   5.745 -0.0855  0.1037  0.2055
18944SOL    HW158826   0.282   0.391   5.793 -0.5745  0.0014 -0.3945
18944SOL    HW258827   0.346   0.421   5.659  0.2516  0.4837  0.1026
18945SOL     OW58828   4.111   6.298   7.348  0.4741  0.1523 -0.0918
18945SOL    HW158829   4.087   6.272   7.259 -1.2548 -1.7887  0.8542
18945SOL    HW258830   4.205   6.282   7.353  0.5101 -0.1475 -1.4157
18946SOL     OW58831   3.364   7.783   3.744 -0.1407  0.6896  0.4801
18946SOL    HW158832   3.398   7.761   3.657 -1.8295  0.1710 -0.1008
18946SOL    HW258833   3.409   7.724   3.803 -1.0187 -0.9886 -0.4422
18947SOL     OW58834   1.692   7.749   5.233 -0.4810  0.3769 -0.5587
18947SOL    HW158835   1.652   7.774   5.316 -0.6438 -0.4808 -0.3685
18947SOL    HW258836   1.706   7.654   5.241  1.7853  0.6574 -0.5347
18948SOL     OW58837   6.250   5.231   0.384  0.3229 -0.8250 -0.0502
18948SOL    HW158838   6.211   5.276   0.310  0.0504  0.1473  0.6746
18948SOL    HW258839   6.340   5.213   0.357  0.3768 -0.0063 -0.4199
18949SOL     OW58840   1.666   5.467   3.124 -0.2745 -0.2257 -0.3871
18949SOL    HW158841   1.692   5.395   3.067 -2.3309 -1.4933  0.1723
18949SOL    HW258842   1.726   5.461   3.198 -1.3640 -2.4408  0.4165
18950SOL     OW58843   7.238   7.954   8.474 -0.3967 -0.5595 -0.5244
18950SOL    HW158844   7.169   7.888   8.472  0.0137 -0.9836 -1.1795
18950SOL    HW258845   7.231   7.994   8.560 -1.0682 -1.0157 -0.3622
18951SOL     OW58846   2.973   1.938   5.183 -0.0810  0.0884 -0.0093
18951SOL    HW158847   2.921   2.014   5.208  0.3947  0.3865  0.0964
18951SOL    HW258848   2.964   1.933   5.088 -0.0295  0.3425 -0.0283
18952SOL     OW58849   0.451   3.947   8.615 -0.2328 -0.1341 -0.3433
18952SOL    HW158850   0.411   3.968   8.700  2.3421 -3.1082  1.8346
18952SOL    HW258851   0.536   3.991   8.617 -0.0702 -0.3776 -1.3306
18953SOL     OW58852   0.351   1.123   3.818  0.3210  0.2249  0.4302
18953SOL    HW158853   0.423   1.171   3.776 -0.5681  1.1448 -0.0926
18953SOL    HW258854   0.279   1.185   3.821 -0.3400 -0.5512  1.3197
18954SOL     OW58855   6.428   6.047   4.422  0.0668  0.0039  0.6081
18954SOL    HW158856   6.344   6.091   4.411  0.5580  1.3194  1.8002
18954SOL    HW258857   6.493   6.115   4.406  0.9353 -1.0356 -0.4612
18955SOL     OW58858   4.387   7.040   5.104 -0.2997 -0.0954  0.0694
18955SOL    HW158859   4.423   6.971   5.049 -0.6779 -0.3293  0.1125
18955SOL    HW258860   4.335   7.093   5.045  0.7969  0.7522 -0.1680
18956SOL     OW58861   0.296   7.689   0.284  0.6255 -0.6698 -0.0598
18956SOL    HW158862   0.325   7.780   0.278 -0.3227 -0.3438  0.0612
18956SOL    HW258863   0.240   7.687   0.362  1.2128 -1.5237  0.3502
18957SOL     OW58864   0.944   6.040   3.373  0.0756  0.7209 -0.1457
18957SOL    HW158865   0.884   6.110   3.348 -0.8287  0.0714  0.1725
18957SOL    HW258866   1.010   6.039   3.304 -0.8529  0.7557 -1.0481
18958SOL     OW58867   3.012   6.043   0.399 -0.2102 -0.1785  0.4710
18958SOL    HW158868   2.990   6.087   0.481 -2.0566 -1.4192  0.7069
18958SOL    HW258869   2.969   6.095   0.331 -0.8035 -0.5430  0.5603
18959SOL     OW58870   3.917   5.734   6.822  0.2001 -0.6460 -0.0619
18959SOL    HW158871   4.003   5.734   6.865  1.4880  1.6886 -2.4034
18959SOL    HW258872   3.928   5.675   6.747 -0.4710 -0.8344 -0.0147
18960SOL     OW58873   2.470   7.127   3.229 -0.1090 -0.1536  0.1822
18960SOL    HW158874   2.561   7.151   3.250  0.2095 -1.1248 -0.0212
18960SOL    HW258875   2.449   7.178   3.151  1.1759 -1.7688 -1.3203
18961SOL     OW58876   3.996   4.516   5.497  0.1770 -0.4497 -0.0436
18961SOL    HW158877   3.923   4.577   5.491  0.9489  0.4222 -0.9445
18961SOL    HW258878   4.062   4.563   5.549 -0.3779 -1.7484  1.9315
18962SOL     OW58879   3.861   2.909   5.486  0.2915 -0.0630 -0.1660
18962SOL    HW158880   3.784   2.941   5.534 -1.3430  0.7180 -3.0491
18962SOL    HW258881   3.826   2.841   5.428  1.8189  0.1152 -1.3446
18963SOL     OW58882   4.618   0.582   6.215 -0.2703 -0.4276  0.1201
18963SOL    HW158883   4.662   0.538   6.143 -1.0468  2.0007 -1.9875
18963SOL    HW258884   4.525   0.562   6.203 -0.2756 -1.4944  1.6083
18964SOL     OW58885   7.073   3.564   4.981 -0.2833 -0.0172  0.0738
18964SOL    HW158886   7.096   3.611   4.901 -0.3151 -0.0173  0.0643
18964SOL    HW258887   7.152   3.566   5.034 -0.5726  0.8906  0.4808
18965SOL     OW58888   0.497   5.285   7.905 -0.3463 -0.3965  0.5799
18965SOL    HW158889   0.412   5.330   7.908 -0.8775 -1.3385  0.0807
18965SOL    HW258890   0.525   5.282   7.996  0.6666  2.6554  0.4953
18966SOL     OW58891   6.905   7.390   2.528 -0.3822 -0.4228 -0.0973
18966SOL    HW158892   6.847   7.315   2.518  1.5315 -2.0900  0.5762
18966SOL    HW258893   6.930   7.389   2.621  1.4320 -0.3897 -0.5335
18967SOL     OW58894   7.714   4.184   1.979  0.3786 -0.0808  0.3274
18967SOL    HW158895   7.637   4.145   2.021  0.0867  1.0621  0.8913
18967SOL    HW258896   7.786   4.165   2.039  0.2826  0.0206  0.4766
18968SOL     OW58897   0.184   8.230   3.441 -0.2373  0.1992  0.2865
18968SOL    HW158898   0.207   8.153   3.494  0.4918  0.2817  0.1067
18968SOL    HW258899   0.094   8.214   3.413 -0.3363 -0.2518  0.8417
18969SOL     OW58900   6.898   6.959   0.610 -0.4868 -0.0697 -0.0431
18969SOL    HW158901   6.911   6.884   0.668 -0.1270  0.0982  0.0947
18969SOL    HW258902   6.966   6.950   0.543 -0.7169 -0.1027 -0.2748
18970SOL     OW58903   3.552   8.556   0.142 -0.0677  0.5768 -0.1242
18970SOL    HW158904   3.577   8.506   0.064 -0.8133  1.0102 -0.6537
18970SOL    HW258905   3.617   8.532   0.208  0.6919  0.3597 -0.9404
18971SOL     OW58906   0.554   2.853   1.868  0.4403 -0.0235  0.2192
18971SOL    HW158907   0.546   2.814   1.782 -0.6663  1.0122 -0.1857
18971SOL    HW258908   0.464   2.877   1.892  0.8112  0.3327  1.3561
18972SOL     OW58909   2.161   2.854   1.711  0.1769 -0.2308 -0.0622
18972SOL    HW158910   2.221   2.801   1.764  0.0354  0.4765  0.8377
18972SOL    HW258911   2.074   2.822   1.735 -0.0099  1.3519  1.6459
18973SOL     OW58912   1.925   1.628   4.677 -0.6022  0.2538 -0.5165
18973SOL    HW158913   1.971   1.548   4.703  0.2622  1.0791  0.6067
18973SOL    HW258914   1.993   1.686   4.645 -1.0112  1.0391 -0.0156
18974SOL     OW58915   0.541   1.519   7.365  0.1947 -0.2639 -0.1556
18974SOL    HW158916   0.530   1.590   7.302 -0.4795  1.1325  1.4325
18974SOL    HW258917   0.634   1.520   7.387  0.8655 -2.1053 -2.5280
18975SOL     OW58918   8.277   7.804   7.708 -0.1928  0.1873  0.0588
18975SOL    HW158919   8.197   7.833   7.753  0.8438  1.2069  1.3284
18975SOL    HW258920   8.333   7.772   7.777  0.4053 -0.8158 -0.8622
18976SOL     OW58921   1.011   1.383   3.190  0.1759  0.0899  0.2400
18976SOL    HW158922   0.986   1.470   3.220  1.2961  0.2856  0.6537
18976SOL    HW258923   1.099   1.395   3.154  0.3027 -0.8519  0.2181
18977SOL     OW58924   8.562   2.705   1.669 -0.0005 -0.4222 -0.0999
18977SOL    HW158925   8.512   2.626   1.685  0.6840 -0.6919  0.8128
18977SOL    HW258926   8.525   2.770   1.729  0.2900 -0.4408  0.1073
18978SOL     OW58927   2.052   6.790   2.769  0.0483  0.2741 -0.0072
18978SOL    HW158928   2.043   6.758   2.679  0.7890 -3.2449  0.9894
18978SOL    HW258929   1.962   6.788   2.804 -0.1821  1.2335 -0.5317
18979SOL     OW58930   7.198   7.175   1.724  0.2033  0.2395 -0.1545
18979SOL    HW158931   7.181   7.132   1.640  2.7650 -1.9008  0.3200
18979SOL    HW258932   7.217   7.104   1.785 -0.9026  1.7834  2.1449
18980SOL     OW58933   3.332   0.957   3.288  0.0495 -0.0733  0.3146
18980SOL    HW158934   3.335   0.917   3.201 -1.0099  0.4852 -0.0050
18980SOL    HW258935   3.422   0.984   3.306  0.0853  0.8317 -1.1073
18981SOL     OW58936   7.748   6.789   6.108 -0.0709 -0.1270 -0.0704
18981SOL    HW158937   7.807   6.864   6.101 -0.1012  0.0044  0.9970
18981SOL    HW258938   7.794   6.726   6.163 -0.1619 -0.7959 -0.7377
18982SOL     OW58939   4.868   0.173   3.005  0.1196  0.1818  0.3875
18982SOL    HW158940   4.776   0.165   3.030  0.2589  0.5756  1.0486
18982SOL    HW258941   4.892   0.085   2.974 -0.6852  0.2717 -0.5405
18983SOL     OW58942   1.818   3.823   6.222  0.1731  0.4458 -0.4012
18983SOL    HW158943   1.784   3.808   6.310  1.5555  1.6650  0.3978
18983SOL    HW258944   1.875   3.748   6.205 -1.9555 -1.0332 -1.2935
18984SOL     OW58945   1.767   7.322   1.026 -0.0356  0.2162 -0.3261
18984SOL    HW158946   1.723   7.352   0.946 -0.2399 -1.1830 -0.7561
18984SOL    HW258947   1.700   7.270   1.071  1.0423 -1.7421 -0.8695
18985SOL     OW58948   1.140   3.659   7.692 -0.0463 -0.3255  0.1593
18985SOL    HW158949   1.119   3.636   7.601  0.9980 -1.2730  0.1349
18985SOL    HW258950   1.055   3.680   7.732 -0.3963  1.4427 -1.3752
18986SOL     OW58951   8.673   2.829   0.485  0.3110 -0.1307  0.1054
18986SOL    HW158952   8.593   2.842   0.434 -0.0216 -2.7265 -0.1385
18986SOL    HW258953   8.653   2.868   0.571 -0.2411  1.4984 -0.7098
18987SOL     OW58954   4.439   4.058   6.802 -0.8014 -0.5155 -0.1526
18987SOL    HW158955   4.390   3.993   6.855  0.2892 -0.9678  0.3275
18987SOL    HW258956   4.513   4.009   6.767  0.8460  0.7454  1.3576
18988SOL     OW58957   5.886   1.058   0.503 -0.0272 -0.4024 -0.3064
18988SOL    HW158958   5.889   1.075   0.597  0.2825 -0.1222 -0.3642
18988SOL    HW258959   5.846   0.971   0.496 -0.3165 -0.3018  0.0655
18989SOL     OW58960   8.636   1.786   1.184 -0.1030 -0.5106 -0.0646
18989SOL    HW158961   8.709   1.814   1.238 -0.9149  0.7951  0.3831
18989SOL    HW258962   8.655   1.821   1.097 -1.2071  1.7040  0.5347
18990SOL     OW58963   2.076   6.152   7.340  0.1048 -0.2497  0.2208
18990SOL    HW158964   2.032   6.070   7.363  1.0126 -1.0782 -0.8568
18990SOL    HW258965   2.150   6.124   7.286 -0.9030  1.4088 -2.1679
18991SOL     OW58966   0.748   3.712   0.550 -0.5709  0.6777  0.0822
18991SOL    HW158967   0.770   3.700   0.642  1.7262  0.7576 -0.4139
18991SOL    HW258968   0.663   3.757   0.552 -0.0261  1.7439  2.1531
18992SOL     OW58969   8.651   3.494   6.182  0.5410 -0.0200  0.0625
18992SOL    HW158970   8.655   3.447   6.099 -0.6882  0.4099 -0.2673
18992SOL    HW258971   8.563   3.532   6.184  0.5578  0.0188  1.5365
18993SOL     OW58972   3.452   8.892   1.759  0.6179 -0.8772  0.3651
18993SOL    HW158973   3.518   8.928   1.698  0.1145 -0.6784 -0.0730
18993SOL    HW258974   3.432   8.965   1.818  0.7705 -0.9313  0.4853
18994SOL     OW58975   7.575   3.943   7.810 -0.5593  0.0485  0.1855
18994SOL    HW158976   7.506   3.950   7.745 -0.5804 -0.2965  0.1673
18994SOL    HW258977   7.555   3.862   7.858  0.0325 -0.2525 -0.0644
18995SOL     OW58978   2.707   0.541   0.021 -0.3882 -0.0595 -0.4161
18995SOL    HW158979   2.709   0.501   0.108 -0.3317 -2.1455 -1.3149
18995SOL    HW258980   2.625   0.589   0.019  0.3153  1.3274  1.3014
18996SOL     OW58981   1.037   3.829   1.492  0.1396 -0.3933  0.0636
18996SOL    HW158982   1.020   3.916   1.527  0.9827 -0.0724 -0.2903
18996SOL    HW258983   0.962   3.811   1.436 -1.6062 -1.2156  2.4973
18997SOL     OW58984   3.897   3.465   8.872 -0.1718  0.0042  0.7274
18997SOL    HW158985   3.878   3.427   8.786 -1.4705  0.1187  0.9434
18997SOL    HW258986   3.905   3.559   8.857  2.3024 -0.1947  0.3188
18998SOL     OW58987   1.339   0.870   6.103 -0.5041 -0.7601 -0.0641
18998SOL    HW158988   1.302   0.888   6.189  1.6745  1.5231  0.5382
18998SOL    HW258989   1.425   0.832   6.121 -0.9292 -2.4423 -1.3211
18999SOL     OW58990   3.622   6.405   4.859 -0.0037 -0.2240 -0.3886
18999SOL    HW158991   3.621   6.500   4.850 -1.6579 -0.0412  1.2639
18999SOL    HW258992   3.542   6.375   4.815 -1.0888 -0.5170  1.6640
19000SOL     OW58993   2.367   8.274   7.271  0.0694 -0.0276 -0.3995
19000SOL    HW158994   2.333   8.361   7.248 -0.0021 -0.1376 -0.7173
19000SOL    HW258995   2.313   8.214   7.220 -2.6341 -0.5881  2.7555
19001SOL     OW58996   7.187   4.723   7.807 -0.1508 -0.5094  0.3969
19001SOL    HW158997   7.166   4.646   7.860 -1.6302  0.5393  1.3960
19001SOL    HW258998   7.107   4.775   7.806  0.2962  0.2512 -1.6390
19002SOL     OW58999   3.375   8.305   7.050  0.7324 -0.6648  0.2483
19002SOL    HW159000   3.377   8.277   6.959 -1.5959 -0.6153  0.1237
19002SOL    HW259001   3.320   8.241   7.095  2.0732 -0.8524  1.7018
19003SOL     OW59002   5.295   8.084   1.203  0.6938 -0.0990 -0.0961
19003SOL    HW159003   5.280   8.173   1.172  1.4462  0.2688  0.5467
19003SOL    HW259004   5.222   8.067   1.262  0.1829 -0.1644 -0.7432
19004SOL     OW59005   2.666   6.023   1.513  0.5131 -0.2363 -0.4022
19004SOL    HW159006   2.717   5.957   1.560  0.1787 -0.3827 -0.2410
19004SOL    HW259007   2.724   6.051   1.442  1.3028  0.4979  0.5011
19005SOL     OW59008   7.179   8.859   4.341 -0.0319  0.0971 -0.0013
19005SOL    HW159009   7.226   8.894   4.417  1.8025 -0.3258 -0.8767
19005SOL    HW259010   7.164   8.766   4.362 -0.8354  0.3118  0.4247
19006SOL     OW59011   0.482   0.879   8.113 -0.2475  0.0304 -0.2026
19006SOL    HW159012   0.459   0.861   8.205  2.4684 -0.3338  0.4943
19006SOL    HW259013   0.488   0.975   8.109  0.1253  0.0254  0.1452
19007SOL     OW59014   8.158   5.992   1.499 -0.0320  0.4065  0.0277
19007SOL    HW159015   8.094   6.030   1.558 -1.6811 -2.8454  0.5944
19007SOL    HW259016   8.243   6.016   1.536 -0.9833  1.1045  1.8671
19008SOL     OW59017   4.957   2.264   3.829 -0.0270  0.1356 -0.8373
19008SOL    HW159018   4.932   2.172   3.843 -0.5892  0.6517  2.1277
19008SOL    HW259019   5.052   2.264   3.837 -0.1691  0.0757  1.6882
19009SOL     OW59020   3.331   7.499   3.127  0.5980 -0.7770 -0.2338
19009SOL    HW159021   3.330   7.523   3.220  0.1004  0.5622 -0.5591
19009SOL    HW259022   3.245   7.526   3.095  0.5168 -1.8530 -0.9459
19010SOL     OW59023   0.750   6.867   5.744  0.5485 -0.1029  0.0930
19010SOL    HW159024   0.762   6.950   5.699  0.7579  0.4057  1.0693
19010SOL    HW259025   0.838   6.830   5.750  0.2485 -1.4174 -2.1658
19011SOL     OW59026   8.755   7.108   0.441 -0.0417  0.3526  0.1119
19011SOL    HW159027   8.735   7.120   0.348 -1.1123  1.2094  0.4275
19011SOL    HW259028   8.808   7.029   0.444 -1.8821 -1.0098 -1.0134
19012SOL     OW59029   3.657   3.658   6.803  0.1408 -0.1399  0.3252
19012SOL    HW159030   3.663   3.570   6.841  0.3784  0.2120  1.1308
19012SOL    HW259031   3.746   3.680   6.778 -0.2021 -0.9079 -1.7495
19013SOL     OW59032   4.091   7.929   7.850 -0.5737 -0.0856  0.0816
19013SOL    HW159033   4.057   7.970   7.930  0.1006  3.0819 -1.0954
19013SOL    HW259034   4.019   7.933   7.788 -0.5010 -0.7704 -0.0596
19014SOL     OW59035   1.504   0.762   5.759  0.0887 -1.0821  0.1158
19014SOL    HW159036   1.524   0.851   5.790  0.2756 -1.1188  0.1039
19014SOL    HW259037   1.419   0.742   5.797  1.0020 -1.7457  1.9293
19015SOL     OW59038   7.740   6.173   3.814  0.3627 -0.2305  0.0659
19015SOL    HW159039   7.667   6.235   3.811  1.1701  0.7516  0.0069
19015SOL    HW259040   7.699   6.087   3.806 -0.7293  0.3325 -0.7055
19016SOL     OW59041   3.696   4.383   0.933 -0.4009  0.3027 -0.3115
19016SOL    HW159042   3.694   4.386   1.029 -5.2518 -0.8402 -0.0808
19016SOL    HW259043   3.731   4.296   0.913 -0.6872 -0.0287  0.5545
19017SOL     OW59044   4.750   6.569   1.084  0.6421  0.2376 -0.2205
19017SOL    HW159045   4.792   6.501   1.136  0.1933 -1.0206 -1.4130
19017SOL    HW259046   4.796   6.649   1.106  1.2972 -0.4784  1.1208
19018SOL     OW59047   7.192   4.571   3.683  0.1007 -0.5026 -0.1201
19018SOL    HW159048   7.223   4.535   3.766 -0.7812  0.0410  0.4622
19018SOL    HW259049   7.205   4.666   3.693  0.4801 -0.4747 -0.8192
19019SOL     OW59050   8.771   3.037   5.040 -0.4127  0.0625 -0.2634
19019SOL    HW159051   8.787   3.115   5.094  0.0891  1.5746 -2.4771
19019SOL    HW259052   8.693   3.059   4.989 -1.1896 -1.5508  0.1737
19020SOL     OW59053   8.655   5.421   5.622 -0.1883  0.4837  0.0836
19020SOL    HW159054   8.680   5.461   5.539  0.0448  0.0173 -0.0703
19020SOL    HW259055   8.669   5.327   5.609 -0.0136  0.4230  0.6993
19021SOL     OW59056   5.386   4.119   7.905  0.2113 -0.2146 -0.0747
19021SOL    HW159057   5.372   4.046   7.845  0.6540 -1.5479  1.3796
19021SOL    HW259058   5.474   4.150   7.885 -0.2841  0.4879 -1.2550
19022SOL     OW59059   2.565   4.693   7.079 -0.2001 -0.3466 -0.5550
19022SOL    HW159060   2.620   4.771   7.072 -0.5993  0.1527  1.1986
19022SOL    HW259061   2.478   4.727   7.099 -0.5003 -1.2249 -0.3187
19023SOL     OW59062   0.476   4.424   5.104 -0.4222  0.2925 -0.2290
19023SOL    HW159063   0.386   4.404   5.129  0.0453  0.6083  1.8944
19023SOL    HW259064   0.469   4.501   5.047 -1.5305 -0.2535 -0.8634
19024SOL     OW59065   1.576   5.994   1.551 -0.2364  0.2180  0.7374
19024SOL    HW159066   1.606   6.085   1.544  0.8753 -0.1532  0.4482
19024SOL    HW259067   1.645   5.943   1.508 -1.6570 -0.6175 -0.6749
19025SOL     OW59068   5.701   4.128   5.023 -0.6603 -0.0898 -0.0613
19025SOL    HW159069   5.796   4.122   5.028 -0.8119 -2.7785  1.9591
19025SOL    HW259070   5.677   4.076   4.946 -0.5308  0.5946 -0.5751
19026SOL     OW59071   6.215   4.089   4.829  0.8056  0.3656 -0.3503
19026SOL    HW159072   6.153   4.161   4.816  1.0260  0.5084 -0.6067
19026SOL    HW259073   6.176   4.016   4.780  0.7069  0.3796 -0.2933
19027SOL     OW59074   5.814   7.587   3.446  0.3900  0.5261  0.7175
19027SOL    HW159075   5.806   7.632   3.362 -0.3093  0.4457  0.7331
19027SOL    HW259076   5.879   7.637   3.494 -0.0927  1.3028  0.5847
19028SOL     OW59077   5.247   2.849   0.700  0.1240 -0.1934 -0.4162
19028SOL    HW159078   5.247   2.753   0.703 -1.4741 -0.2146 -0.0488
19028SOL    HW259079   5.329   2.872   0.657  0.7157 -1.7148 -0.1441
19029SOL     OW59080   1.727   7.452   3.125 -0.2842  0.1649  0.6708
19029SOL    HW159081   1.677   7.533   3.120 -1.1841 -0.4422 -0.4827
19029SOL    HW259082   1.696   7.399   3.051  1.5434 -0.5208  0.3396
19030SOL     OW59083   4.269   3.514   6.526  0.2812  0.4992 -0.7660
19030SOL    HW159084   4.275   3.468   6.442  0.7911  0.5144 -0.7408
19030SOL    HW259085   4.355   3.500   6.567 -0.1614  0.0088  0.0043
19031SOL     OW59086   6.705   0.033   5.552 -0.0409  0.5361  0.5632
19031SOL    HW159087   6.698   0.129   5.553 -0.4564  0.5220 -0.1832
19031SOL    HW259088   6.778   0.015   5.492 -0.6590  0.3627 -0.1499
19032SOL     OW59089   1.834   0.553   1.419 -0.3324  0.4751  0.3523
19032SOL    HW159090   1.787   0.591   1.493 -2.1241  0.8641 -0.9057
19032SOL    HW259091   1.764   0.520   1.361  1.0101 -0.1641 -0.9807
19033SOL     OW59092   4.121   8.099   2.425 -0.0903 -0.1752  0.4180
19033SOL    HW159093   4.183   8.171   2.424  1.4580 -1.4170 -1.6837
19033SOL    HW259094   4.058   8.122   2.493  2.1066  1.6214  1.9912
19034SOL     OW59095   0.412   0.702   6.687  0.2888  0.9516  0.0280
19034SOL    HW159096   0.437   0.686   6.778  0.3481 -0.0824 -0.1596
19034SOL    HW259097   0.359   0.782   6.691 -1.2885 -0.1059  1.2358
19035SOL     OW59098   1.587   5.194   7.249  0.2310 -0.5366  0.8254
19035SOL    HW159099   1.537   5.273   7.228  0.7464  0.5261  3.1767
19035SOL    HW259100   1.621   5.164   7.165  0.2652  1.9335 -0.1469
19036SOL     OW59101   6.672   7.421   6.138 -0.0286  0.6241  0.0333
19036SOL    HW159102   6.692   7.465   6.056  0.6284  1.5538  0.6693
19036SOL    HW259103   6.597   7.365   6.118  0.2040  0.7375 -1.2226
19037SOL     OW59104   8.416   0.982   1.674 -0.0783 -0.6705  0.0423
19037SOL    HW159105   8.497   0.966   1.625  0.5620 -0.1646  0.9184
19037SOL    HW259106   8.352   1.003   1.606  0.8867  0.3998 -0.5882
19038SOL     OW59107   4.300   0.786   2.121 -0.0106 -0.3031  0.1770
19038SOL    HW159108   4.215   0.773   2.164  0.0933 -0.1797  0.4230
19038SOL    HW259109   4.341   0.700   2.123 -0.8962 -0.8254 -1.6321
19039SOL     OW59110   7.338   5.803   0.243 -0.0433  0.7268 -0.4849
19039SOL    HW159111   7.400   5.838   0.306  0.5702 -0.6444 -0.2780
19039SOL    HW259112   7.359   5.709   0.239 -0.5016  0.6620 -2.2237
19040SOL     OW59113   1.016   4.046   0.287 -0.1750 -0.0539  0.0232
19040SOL    HW159114   1.014   3.981   0.216 -1.2301  0.6131 -0.5786
19040SOL    HW259115   0.930   4.038   0.329 -0.1428  0.6422  0.2307
19041SOL     OW59116   5.462   4.486   6.848 -0.2190  0.9581 -0.4700
19041SOL    HW159117   5.430   4.554   6.908 -1.7827 -0.9490  0.9742
19041SOL    HW259118   5.425   4.511   6.763  0.2689  2.5496 -0.2560
19042SOL     OW59119   8.560   5.810   1.250  0.1638 -0.3540 -0.2990
19042SOL    HW159120   8.570   5.716   1.234 -0.7658 -0.3319 -1.1131
19042SOL    HW259121   8.509   5.841   1.175 -0.0541  0.6863  0.2717
19043SOL     OW59122   8.316   6.545   7.595  0.2852 -0.2548 -0.3183
19043SOL    HW159123   8.374   6.589   7.658 -1.8020  2.2188  0.0617
19043SOL    HW259124   8.346   6.575   7.510  0.9945 -0.8642 -0.2895
19044SOL     OW59125   3.342   5.498   2.892  0.2012 -0.0367 -0.1083
19044SOL    HW159126   3.375   5.482   2.803 -0.1762 -0.3654 -0.1954
19044SOL    HW259127   3.330   5.410   2.928  0.3917  0.0980  0.2834
19045SOL     OW59128   4.717   3.167   0.434 -0.2073  0.0722  0.1413
19045SOL    HW159129   4.793   3.225   0.438 -1.1837  1.4902 -0.9405
19045SOL    HW259130   4.672   3.192   0.353 -1.2302 -1.4931  0.1935
19046SOL     OW59131   7.726   3.163   4.698  0.2478  0.6714  0.1070
19046SOL    HW159132   7.694   3.198   4.615 -2.6392  1.9091  1.5699
19046SOL    HW259133   7.709   3.069   4.692 -0.7807  0.8691 -0.4062
19047SOL     OW59134   4.322   4.876   4.775  0.0128 -0.0681  0.0452
19047SOL    HW159135   4.402   4.879   4.827  0.4722 -1.8788 -0.4622
19047SOL    HW259136   4.294   4.784   4.781 -2.5604  0.6989  0.9539
19048SOL     OW59137   3.876   4.401   5.178 -0.0105  0.4555 -0.4405
19048SOL    HW159138   3.957   4.449   5.161 -0.6387  1.7353 -0.0006
19048SOL    HW259139   3.818   4.424   5.105 -0.6528  1.1781  0.2724
19049SOL     OW59140   5.998   7.099   4.607 -1.2489 -0.3753  0.0540
19049SOL    HW159141   6.074   7.122   4.552 -1.2737 -0.2336  0.0776
19049SOL    HW259142   5.933   7.165   4.585 -0.1173  1.8253  2.6937
19050SOL     OW59143   8.182   5.214   5.617  0.2863  0.4090  0.1153
19050SOL    HW159144   8.092   5.231   5.589  0.1895 -1.6862 -1.1314
19050SOL    HW259145   8.178   5.127   5.657  2.0945 -0.9796 -2.3877
19051SOL     OW59146   5.005   4.694   5.822  0.3531  0.0445 -0.0660
19051SOL    HW159147   5.001   4.789   5.838 -1.3270  0.1894 -1.0559
19051SOL    HW259148   5.076   4.684   5.759  0.7144  0.6071  0.2388
19052SOL     OW59149   2.110   7.161   8.309  0.1402 -0.1489  0.0001
19052SOL    HW159150   2.048   7.169   8.382  0.5095 -0.9474  0.4171
19052SOL    HW259151   2.190   7.127   8.349  0.0798 -1.4284 -0.8953
19053SOL     OW59152   1.966   4.148   0.970 -0.0183 -0.2429  0.4832
19053SOL    HW159153   1.895   4.212   0.962  0.3581  0.1937  0.5631
19053SOL    HW259154   2.009   4.149   0.884  0.9334  0.7524  0.9476
19054SOL     OW59155   2.923   2.624   2.694  0.3631 -0.0422 -0.3786
19054SOL    HW159156   2.967   2.545   2.726  4.1400  1.6172 -0.9721
19054SOL    HW259157   2.902   2.673   2.774  1.2320 -0.0935 -0.1044
19055SOL     OW59158   1.639   4.774   6.633  0.4853  0.1111  0.1490
19055SOL    HW159159   1.694   4.838   6.587 -0.0038 -0.1633 -0.8396
19055SOL    HW259160   1.647   4.694   6.581  0.5817 -0.4534  1.0170
19056SOL     OW59161   5.224   6.378   2.328  0.2529 -0.7785  0.3073
19056SOL    HW159162   5.132   6.353   2.325  0.2736 -0.8394  0.1882
19056SOL    HW259163   5.268   6.320   2.266  0.2349 -0.1884 -0.2665
19057SOL     OW59164   4.076   4.929   4.661  0.4892 -0.2782 -0.0424
19057SOL    HW159165   4.164   4.910   4.692  1.4344  1.9035 -1.1747
19057SOL    HW259166   4.054   5.013   4.702 -0.6971 -0.3467 -0.4973
19058SOL     OW59167   5.239   3.095   2.689 -0.3976 -0.0755  0.0966
19058SOL    HW159168   5.303   3.050   2.744 -0.8607 -2.1838 -0.9671
19058SOL    HW259169   5.292   3.149   2.631  0.2954 -0.3183  0.4867
19059SOL     OW59170   5.475   1.904   6.401  0.8048 -0.3017 -0.2049
19059SOL    HW159171   5.553   1.850   6.396  0.3802 -0.9907  0.3776
19059SOL    HW259172   5.406   1.851   6.363  0.2291 -0.4897  1.0358
19060SOL     OW59173   8.263   5.936   5.203  0.6197  0.1669 -0.4589
19060SOL    HW159174   8.289   5.957   5.113  0.8192  1.0090 -0.2123
19060SOL    HW259175   8.267   5.841   5.207 -0.4809  0.0400 -1.6595
19061SOL     OW59176   4.390   5.458   6.641  0.3414 -0.0237  0.1866
19061SOL    HW159177   4.373   5.515   6.716 -0.1224 -0.9776  0.8212
19061SOL    HW259178   4.406   5.519   6.569 -1.0287  0.9229  0.6348
19062SOL     OW59179   0.045   2.655   4.522  0.0523 -0.8593 -0.7370
19062SOL    HW159180   0.110   2.724   4.534  0.1222 -0.8679 -1.0687
19062SOL    HW259181   0.083   2.579   4.566 -0.6120 -0.3422  0.7937
19063SOL     OW59182   0.846   8.214   2.695  0.2614 -0.1066  0.1403
19063SOL    HW159183   0.912   8.236   2.761 -0.9239  0.5482  1.1484
19063SOL    HW259184   0.893   8.218   2.612  1.5555  0.0640  0.8504
19064SOL     OW59185   4.704   2.272   2.590 -0.3429 -0.2078 -0.1878
19064SOL    HW159186   4.665   2.204   2.536 -0.3294 -1.3898  1.2255
19064SOL    HW259187   4.632   2.305   2.644  0.0484 -0.5242  0.5473
19065SOL     OW59188   3.275   1.359   6.792  0.3054 -0.3460  0.3782
19065SOL    HW159189   3.356   1.317   6.760  0.4919 -0.2254  0.6928
19065SOL    HW259190   3.234   1.293   6.847  1.1118  0.2210  1.7103
19066SOL     OW59191   5.180   5.712   0.859 -0.1131  0.0600 -0.7075
19066SOL    HW159192   5.148   5.797   0.887 -1.9425 -0.6965 -0.3400
19066SOL    HW259193   5.111   5.678   0.801  0.0492 -1.6115  0.0118
19067SOL     OW59194   1.052   4.646   0.164 -0.4213 -1.0439  0.0196
19067SOL    HW159195   1.090   4.733   0.177  1.2731 -1.6460 -0.5627
19067SOL    HW259196   1.034   4.614   0.252  1.4548 -1.1352  0.4011
19068SOL     OW59197   6.099   8.543   3.112 -0.9348 -0.4949 -0.1811
19068SOL    HW159198   6.148   8.478   3.163 -1.8570 -0.7689  0.3903
19068SOL    HW259199   6.013   8.504   3.101 -0.9928 -0.0780 -1.2922
19069SOL     OW59200   0.138   1.152   6.046  0.7416  0.0345 -0.0562
19069SOL    HW159201   0.140   1.058   6.029  0.3254 -0.0610  0.3938
19069SOL    HW259202   0.190   1.190   5.976  0.1416 -0.4529 -0.7725
19070SOL     OW59203   0.655   8.072   3.339  0.0885  0.2843  0.0272
19070SOL    HW159204   0.665   8.167   3.341 -2.7997  0.6751  0.9758
19070SOL    HW259205   0.672   8.048   3.248 -0.5499  1.9476 -0.5732
19071SOL     OW59206   4.815   0.533   8.223  0.0168  0.1292 -0.1096
19071SOL    HW159207   4.814   0.476   8.146  1.4820 -0.1975  0.0763
19071SOL    HW259208   4.767   0.611   8.196 -0.9487 -0.6732 -0.7818
19072SOL     OW59209   7.437   7.806   3.480 -0.1555 -0.2295  0.5603
19072SOL    HW159210   7.496   7.863   3.431  0.2973 -0.9779  0.2150
19072SOL    HW259211   7.349   7.838   3.458  0.1088  1.7036  2.0696
19073SOL     OW59212   2.122   6.408   6.389 -0.1286 -0.2633  0.4650
19073SOL    HW159213   2.027   6.413   6.395 -0.1485 -1.8793  2.4684
19073SOL    HW259214   2.149   6.498   6.368 -1.9603  0.8862  2.5166
19074SOL     OW59215   7.751   0.934   8.803 -0.0125 -0.4356 -0.1853
19074SOL    HW159216   7.705   0.927   8.719 -2.1087 -0.6183  0.9321
19074SOL    HW259217   7.758   0.844   8.834 -0.5152 -0.2524  0.4810
19075SOL     OW59218   7.091   0.228   2.839  0.2792  1.0676 -0.0599
19075SOL    HW159219   7.179   0.245   2.871  0.6350  0.9948 -0.9841
19075SOL    HW259220   7.049   0.178   2.910  1.3952 -0.0277 -0.1534
19076SOL     OW59221   3.350   7.905   0.647  0.3560  0.0980  0.0352
19076SOL    HW159222   3.356   7.982   0.591  4.2749  0.0398  0.1031
19076SOL    HW259223   3.408   7.841   0.606  2.6699 -0.2952  3.4992
19077SOL     OW59224   7.773   0.721   4.927 -0.0698 -0.1060 -0.0889
19077SOL    HW159225   7.748   0.768   4.847 -0.2155  0.6172  0.3723
19077SOL    HW259226   7.723   0.639   4.923 -0.0336 -0.0995 -0.7650
19078SOL     OW59227   0.702   8.158   0.475  0.3955 -0.5280 -0.5793
19078SOL    HW159228   0.682   8.116   0.559 -0.5562 -0.6388 -0.8552
19078SOL    HW259229   0.768   8.100   0.435 -1.1429 -1.9977 -1.1022
19079SOL     OW59230   1.613   7.076   8.381 -0.1749 -0.1879  0.1070
19079SOL    HW159231   1.658   7.119   8.308 -1.5160  0.3535 -0.4330
19079SOL    HW259232   1.682   7.061   8.446  0.7624  0.6824 -0.6503
19080SOL     OW59233   5.137   4.649   8.482  0.6051  0.3865 -0.2431
19080SOL    HW159234   5.193   4.664   8.406  2.5134 -0.7577  0.8622
19080SOL    HW259235   5.059   4.607   8.447  2.4247 -2.2841 -1.3839
19081SOL     OW59236   0.276   4.907   3.827 -0.0221 -0.1649  0.7632
19081SOL    HW159237   0.184   4.932   3.832 -0.1776 -0.9332  2.1802
19081SOL    HW259238   0.309   4.917   3.916  1.0614 -0.6797  0.4396
19082SOL     OW59239   2.599   7.821   1.917  0.4118  0.0906  0.5762
19082SOL    HW159240   2.693   7.800   1.913  0.2104 -0.8147  0.3134
19082SOL    HW259241   2.583   7.872   1.838  0.7574  0.5874  0.8185
19083SOL     OW59242   0.474   4.170   6.886  0.1897  0.2055  0.4051
19083SOL    HW159243   0.419   4.227   6.940 -0.5551  0.1567 -0.2832
19083SOL    HW259244   0.417   4.097   6.863  0.0800  0.8161 -1.4631
19084SOL     OW59245   5.878   2.616   8.552 -0.2003 -0.1472  0.0866
19084SOL    HW159246   5.958   2.606   8.604  0.2449  1.8925 -0.1397
19084SOL    HW259247   5.866   2.531   8.509  1.4869 -0.6780  0.6169
19085SOL     OW59248   0.849   6.689   7.794 -0.2211  0.3544 -0.6599
19085SOL    HW159249   0.770   6.742   7.787 -0.1332  0.4570 -0.9020
19085SOL    HW259250   0.902   6.715   7.719 -0.0872  0.0713 -0.6666
19086SOL     OW59251   2.290   6.799   3.492 -0.1255 -0.2035 -0.0667
19086SOL    HW159252   2.245   6.748   3.425 -0.0349 -0.3524 -0.0164
19086SOL    HW259253   2.356   6.739   3.528 -0.0485 -0.0665  0.0261
19087SOL     OW59254   0.433   8.660   8.085  0.4932  0.2095  0.1395
19087SOL    HW159255   0.491   8.599   8.039  2.9375  2.4269  0.0051
19087SOL    HW259256   0.450   8.744   8.042 -2.7028  1.0468  0.3240
19088SOL     OW59257   2.138   6.832   7.382  0.0858 -0.2948 -0.4890
19088SOL    HW159258   2.043   6.818   7.377 -0.2053  0.5635  1.6063
19088SOL    HW259259   2.148   6.925   7.402  1.3504 -0.4489 -0.3047
19089SOL     OW59260   1.775   5.338   4.971  0.2793 -0.4658 -0.0561
19089SOL    HW159261   1.868   5.322   4.956 -0.0330 -1.3937 -1.1321
19089SOL    HW259262   1.749   5.399   4.903 -0.3222 -1.7819 -1.0460
19090SOL     OW59263   4.574   4.616   3.844  0.7900 -0.4728 -0.1256
19090SOL    HW159264   4.558   4.540   3.788 -0.6773 -0.8944  0.8069
19090SOL    HW259265   4.562   4.583   3.933  0.1899  0.8426  0.2998
19091SOL     OW59266   8.674   6.890   5.201 -0.4035  0.2632  0.0291
19091SOL    HW159267   8.676   6.985   5.193  0.5694  0.2334 -0.1801
19091SOL    HW259268   8.748   6.868   5.257  0.0637 -0.4469 -0.8378
19092SOL     OW59269   1.887   1.834   5.014  0.5147 -0.4304 -0.4651
19092SOL    HW159270   1.851   1.746   5.004 -0.2221 -0.3281  1.0484
19092SOL    HW259271   1.934   1.850   4.932 -1.0390 -1.4406 -1.6104
19093SOL     OW59272   3.713   7.583   8.209  0.2142 -0.4203 -0.0891
19093SOL    HW159273   3.773   7.536   8.267  1.4012  2.1394  0.8731
19093SOL    HW259274   3.643   7.614   8.266 -0.0883 -0.2705 -0.5378
19094SOL     OW59275   0.272   0.926   7.058  0.4549 -0.4834 -0.3909
19094SOL    HW159276   0.242   0.848   7.106  2.1741 -0.0669  1.5005
19094SOL    HW259277   0.341   0.895   7.001  1.7521 -0.2650  1.0079
19095SOL     OW59278   3.389   0.349   6.777 -0.3426  0.3500  0.0137
19095SOL    HW159279   3.391   0.258   6.804 -0.9989  0.6396  1.0838
19095SOL    HW259280   3.469   0.361   6.725  1.1875 -0.1226  2.1373
19096SOL     OW59281   7.600   1.619   7.432 -0.3187  0.3160 -0.3370
19096SOL    HW159282   7.557   1.656   7.355  0.5321  0.4894 -0.7437
19096SOL    HW259283   7.556   1.536   7.447 -2.0213  1.2868  0.3672
19097SOL     OW59284   7.962   1.936   0.290 -0.3875 -0.1169  1.0185
19097SOL    HW159285   7.945   1.862   0.231  0.2830  1.2889 -1.0697
19097SOL    HW259286   7.881   1.987   0.288 -0.2428  0.1126  1.0403
19098SOL     OW59287   8.086   5.803   5.813 -0.1361 -0.0062 -0.0142
19098SOL    HW159288   8.019   5.869   5.794 -0.7776 -0.2673  1.2508
19098SOL    HW259289   8.168   5.853   5.817 -0.4222  0.5013 -0.3386
19099SOL     OW59290   4.668   1.550   6.762 -0.4094  0.1635  0.1446
19099SOL    HW159291   4.726   1.495   6.815 -0.3820 -0.2102 -0.2673
19099SOL    HW259292   4.706   1.638   6.768 -1.1548  0.3970  1.8247
19100SOL     OW59293   1.346   5.825   3.857 -1.2773 -0.1252 -0.3760
19100SOL    HW159294   1.411   5.827   3.787 -1.6806 -0.0726 -0.7564
19100SOL    HW259295   1.332   5.732   3.873 -0.3117 -0.1344  0.4670
19101SOL     OW59296   7.502   7.755   0.718  0.2049  0.0924 -0.5223
19101SOL    HW159297   7.415   7.728   0.747  0.7404  1.1095  2.3795
19101SOL    HW259298   7.490   7.843   0.683 -0.3330 -0.8939 -3.0866
19102SOL     OW59299   5.149   8.529   2.693 -0.3852 -0.2382  0.2828
19102SOL    HW159300   5.178   8.601   2.638 -1.6224 -0.2155 -0.3691
19102SOL    HW259301   5.076   8.490   2.645 -1.5669 -0.1629  1.9431
19103SOL     OW59302   5.608   1.532   1.936  0.3133  0.0614  0.8906
19103SOL    HW159303   5.520   1.569   1.946  0.5036  0.6272  0.5073
19103SOL    HW259304   5.597   1.461   1.872  0.3331  0.8549 -0.0038
19104SOL     OW59305   8.440   6.672   0.520 -0.2162  0.5789 -0.1052
19104SOL    HW159306   8.503   6.624   0.575 -1.6648  1.0249  2.0584
19104SOL    HW259307   8.381   6.605   0.487 -0.9944  0.6003  1.2023
19105SOL     OW59308   8.249   0.934   5.275 -0.3745  0.2624 -0.5224
19105SOL    HW159309   8.259   0.854   5.326 -1.3468 -0.5594 -1.5909
19105SOL    HW259310   8.325   0.987   5.300  0.7651 -1.3415 -0.4546
19106SOL     OW59311   2.875   6.364   0.920 -0.1076 -0.0076 -0.1290
19106SOL    HW159312   2.946   6.412   0.962  0.7996 -0.3527 -1.2193
19106SOL    HW259313   2.918   6.290   0.877 -1.7181 -4.0647  4.3440
19107SOL     OW59314   8.689   1.476   5.703 -0.2863  0.1209 -0.2211
19107SOL    HW159315   8.630   1.515   5.767 -0.2804 -0.6049  0.2390
19107SOL    HW259316   8.774   1.474   5.747  0.0893  1.1494 -0.8738
19108SOL     OW59317   7.343   5.157   8.298  0.0184  0.3384 -0.1020
19108SOL    HW159318   7.342   5.061   8.296  1.2839  0.2747  0.9163
19108SOL    HW259319   7.427   5.179   8.337 -0.5086  1.8693  0.2281
19109SOL     OW59320   7.647   8.589   0.026 -0.2849 -0.5255  0.5543
19109SOL    HW159321   7.671   8.500   0.051 -0.9759 -0.8767 -0.0061
19109SOL    HW259322   7.625   8.583  -0.067 -1.4030  0.0115  0.7704
19110SOL     OW59323   1.566   2.212   7.905 -0.5243 -0.8689  1.0437
19110SOL    HW159324   1.660   2.211   7.922 -0.4338 -1.5792  0.5235
19110SOL    HW259325   1.527   2.233   7.989  0.0624 -1.3398  1.4405
19111SOL     OW59326   0.282   2.628   2.509 -0.0201 -0.1631  0.0488
19111SOL    HW159327   0.212   2.613   2.573 -0.0850  0.3613  0.1045
19111SOL    HW259328   0.314   2.716   2.529  1.4158 -0.8132  0.7411
19112SOL     OW59329   6.102   0.407   4.656 -0.3058  0.3276 -0.0634
19112SOL    HW159330   6.075   0.345   4.724  0.2918  1.5091  1.2892
19112SOL    HW259331   6.092   0.493   4.696 -1.9044  1.2142 -2.1816
19113SOL     OW59332   1.731   0.227   4.283  0.3148 -0.4269 -0.0786
19113SOL    HW159333   1.771   0.146   4.316 -1.4326 -1.3518 -0.1160
19113SOL    HW259334   1.795   0.295   4.305  1.7979 -1.7833  0.0449
19114SOL     OW59335   4.574   5.218   6.199  0.0150  0.1424  0.1276
19114SOL    HW159336   4.550   5.262   6.118  1.5534 -0.3659 -0.6564
19114SOL    HW259337   4.506   5.152   6.212  0.8729 -1.3172 -2.0510
19115SOL     OW59338   8.449   5.197   6.497  0.0949 -0.1298  0.4259
19115SOL    HW159339   8.488   5.284   6.491 -0.1671 -0.0112  0.4842
19115SOL    HW259340   8.525   5.139   6.509  0.2602  0.0961  0.4843
19116SOL     OW59341   7.676   7.339   4.377  0.1878  0.2000  0.3591
19116SOL    HW159342   7.711   7.366   4.462  1.3779 -1.7568  0.5705
19116SOL    HW259343   7.615   7.268   4.398 -0.5577  0.6259 -0.3390
19117SOL     OW59344   2.291   7.908   8.181 -0.2816  0.4077  0.8023
19117SOL    HW159345   2.259   7.861   8.259 -1.5357 -1.3237 -0.6732
19117SOL    HW259346   2.238   7.987   8.177 -0.1686  0.5455  1.7097
19118SOL     OW59347   4.557   2.808   5.335 -0.3538  0.0557  0.0875
19118SOL    HW159348   4.516   2.877   5.388 -1.2120 -0.1009 -0.3407
19118SOL    HW259349   4.568   2.848   5.249 -0.2833 -0.1481  0.0021
19119SOL     OW59350   7.465   3.815   0.859  0.2731  0.2853  0.0927
19119SOL    HW159351   7.424   3.883   0.913  0.6256 -0.4336  1.3311
19119SOL    HW259352   7.558   3.836   0.860  0.8134 -1.5595  2.7380
19120SOL     OW59353   2.380   8.425   3.434 -0.4340  0.0885  0.2402
19120SOL    HW159354   2.363   8.435   3.528  1.7132  1.1299  0.5691
19120SOL    HW259355   2.468   8.389   3.430 -0.9121 -0.9796 -1.3904
19121SOL     OW59356   2.931   6.948   0.106 -0.0878  0.2084 -0.1935
19121SOL    HW159357   2.986   6.899   0.167 -1.0968  0.3210  0.8371
19121SOL    HW259358   2.992   6.980   0.039  0.7230 -1.6639 -0.4045
19122SOL     OW59359   4.480   4.273   2.488 -0.2488 -0.3455  0.3787
19122SOL    HW159360   4.450   4.287   2.398  2.1260  1.5656 -0.2042
19122SOL    HW259361   4.425   4.331   2.541 -1.3421 -1.1311  0.1458
19123SOL     OW59362   0.486   0.567   4.520  0.6078  0.0165 -0.2599
19123SOL    HW159363   0.458   0.599   4.434 -0.0653  0.3607  0.0843
19123SOL    HW259364   0.553   0.501   4.500 -0.8589 -1.2959 -1.1409
19124SOL     OW59365   8.544   5.636   5.814  0.4252 -0.3094 -0.5482
19124SOL    HW159366   8.549   5.585   5.733  2.2675 -0.0182 -0.6809
19124SOL    HW259367   8.523   5.572   5.882  1.0074 -0.9569 -0.9613
19125SOL     OW59368   5.224   1.497   0.334 -0.3206  0.1723 -0.1368
19125SOL    HW159369   5.280   1.423   0.357 -0.4451  0.4952  1.2915
19125SOL    HW259370   5.204   1.539   0.418  1.5285  3.1301 -1.0060
19126SOL     OW59371   7.403   7.513   5.941  0.3074  0.3648  0.5998
19126SOL    HW159372   7.451   7.557   6.011  2.1844 -0.5899 -0.0304
19126SOL    HW259373   7.388   7.582   5.876  1.3964  0.5450  0.5300
19127SOL     OW59374   5.725   2.168   6.797 -0.0657 -0.1722 -0.4221
19127SOL    HW159375   5.788   2.212   6.741 -1.2997  0.2149 -1.5587
19127SOL    HW259376   5.640   2.184   6.755 -0.8218 -1.4595  0.5470
19128SOL     OW59377   6.982   1.295   7.828 -0.2892 -0.1595 -0.6088
19128SOL    HW159378   6.975   1.286   7.733 -0.1497  0.9891 -0.7324
19128SOL    HW259379   7.033   1.374   7.842  0.4403 -0.7859  0.4276
19129SOL     OW59380   7.120   6.077   4.466 -0.3025 -0.3776 -0.2242
19129SOL    HW159381   7.138   6.021   4.542  0.4411 -0.3516 -0.3826
19129SOL    HW259382   7.025   6.068   4.454 -0.1590 -1.9263 -0.4832
19130SOL     OW59383   1.125   8.293   6.698 -0.0379  0.3530 -0.1182
19130SOL    HW159384   1.141   8.272   6.606  1.3861 -0.1925  0.2319
19130SOL    HW259385   1.148   8.213   6.745 -0.3962  0.7488  0.7581
19131SOL     OW59386   2.946   1.472   8.358  1.1163 -0.8018 -0.4974
19131SOL    HW159387   2.992   1.497   8.278  1.2821 -0.6886 -0.3700
19131SOL    HW259388   2.985   1.528   8.426  0.3449 -0.2540 -0.5001
19132SOL     OW59389   3.403   4.497   4.672  0.1838 -0.0988 -0.1494
19132SOL    HW159390   3.481   4.486   4.619  2.2700 -0.0039  2.6506
19132SOL    HW259391   3.383   4.590   4.668  0.5594 -0.0287 -0.4223
19133SOL     OW59392   7.538   3.480   5.182  0.1762 -0.4178  0.1429
19133SOL    HW159393   7.565   3.426   5.257  2.3896  0.6824  0.2323
19133SOL    HW259394   7.587   3.444   5.108  2.2235  1.7368  0.3269
19134SOL     OW59395   2.797   1.511   3.595  0.2115  0.5499 -0.4468
19134SOL    HW159396   2.867   1.551   3.647  1.8159 -1.5383 -0.8809
19134SOL    HW259397   2.727   1.496   3.658 -0.5455  3.9894 -0.2738
19135SOL     OW59398   4.103   5.631   1.681  0.3210 -0.1652 -0.0063
19135SOL    HW159399   4.180   5.686   1.698 -0.3521  1.8519 -2.7050
19135SOL    HW259400   4.131   5.542   1.704  2.8453  0.7417  0.7635
19136SOL     OW59401   5.065   7.790   1.064  0.0413 -0.5462  0.4558
19136SOL    HW159402   5.031   7.870   1.105  0.3236  0.8419 -1.8121
19136SOL    HW259403   5.084   7.816   0.974 -0.8874 -3.4596 -0.7144
19137SOL     OW59404   0.929   6.383   7.536 -0.1843 -0.0204  0.2587
19137SOL    HW159405   0.983   6.409   7.611  0.9906 -1.7472  0.0751
19137SOL    HW259406   0.866   6.321   7.572  0.4496 -0.9334 -0.1585
19138SOL     OW59407   0.996   4.493   0.404  0.4067 -0.2143  0.5666
19138SOL    HW159408   1.019   4.417   0.350  0.3095  1.7087 -2.4078
19138SOL    HW259409   0.903   4.481   0.424 -1.1451  1.3948 -4.3358
19139SOL     OW59410   1.555   0.752   7.145 -0.1406  0.1192  0.5578
19139SOL    HW159411   1.474   0.705   7.126 -1.0731  1.1511  1.7728
19139SOL    HW259412   1.557   0.823   7.081 -1.3242  1.3464  1.8245
19140SOL     OW59413   8.685   2.163   6.841 -0.4258 -0.2998 -0.5303
19140SOL    HW159414   8.774   2.194   6.854 -1.0826  2.1373 -1.3457
19140SOL    HW259415   8.666   2.112   6.920  1.3457 -0.0535  0.0979
19141SOL     OW59416   0.652   1.445   6.219 -0.0005 -0.2626  0.1152
19141SOL    HW159417   0.614   1.428   6.133 -0.2045 -0.9171  0.3237
19141SOL    HW259418   0.671   1.538   6.219 -1.7043  0.1239  0.0297
19142SOL     OW59419   7.064   6.446   2.636  0.0594  0.5064 -0.2217
19142SOL    HW159420   7.073   6.394   2.556 -1.7779  0.8184 -0.6685
19142SOL    HW259421   7.153   6.450   2.671  0.7149 -0.6143 -1.6220
19143SOL     OW59422   1.849   4.988   0.424  0.4655  0.2664 -0.3038
19143SOL    HW159423   1.797   5.063   0.453  0.9851  1.0773 -1.3671
19143SOL    HW259424   1.912   4.974   0.495 -0.2759  0.1953  0.3468
19144SOL     OW59425   5.308   1.042   7.893 -0.0044  0.1391 -0.3291
19144SOL    HW159426   5.391   1.032   7.939 -0.6395  0.9212  1.0491
19144SOL    HW259427   5.266   0.957   7.900  0.3864 -0.0649 -0.4426
19145SOL     OW59428   4.942   5.245   5.264  0.2023 -0.1771  0.2671
19145SOL    HW159429   4.920   5.232   5.171 -1.7038 -0.0849  0.6717
19145SOL    HW259430   5.037   5.245   5.265  0.2866 -1.1688 -1.5636
19146SOL     OW59431   8.493   8.832   8.250  0.3514 -0.0534  0.0420
19146SOL    HW159432   8.559   8.805   8.187 -0.2611 -1.6324  0.0454
19146SOL    HW259433   8.455   8.751   8.283 -1.3466  0.7891  0.3143
19147SOL     OW59434   5.738   3.288   3.513 -0.1742 -0.0810 -0.3346
19147SOL    HW159435   5.675   3.331   3.456 -0.0738 -1.7454 -1.7754
19147SOL    HW259436   5.740   3.343   3.592 -0.3448  2.2849 -1.8718
19148SOL     OW59437   4.367   1.721   7.145  0.3037  0.6125 -0.3052
19148SOL    HW159438   4.451   1.766   7.128 -0.7544  2.9183  0.1454
19148SOL    HW259439   4.376   1.688   7.234  0.6361  1.1377 -0.1333
19149SOL     OW59440   1.554   1.563   8.387 -0.3442 -0.3997 -0.1238
19149SOL    HW159441   1.611   1.495   8.423  1.7363  0.9386 -0.7508
19149SOL    HW259442   1.507   1.597   8.463  0.2004 -1.0792  0.5313
19150SOL     OW59443   5.714   8.284   7.991  0.2268 -0.3313 -0.2432
19150SOL    HW159444   5.723   8.228   8.068  2.0186 -1.9785 -1.5574
19150SOL    HW259445   5.801   8.285   7.952 -0.7967 -0.2768 -2.7136
19151SOL     OW59446   3.624   4.953   1.977  1.1150  0.0793 -0.5011
19151SOL    HW159447   3.642   4.941   2.070 -1.6047  3.0869  0.6145
19151SOL    HW259448   3.668   5.034   1.954 -1.9362  1.9143 -0.4173
19152SOL     OW59449   2.930   6.006   2.563 -0.0045 -0.1516  0.0374
19152SOL    HW159450   3.001   6.031   2.623 -1.5296 -0.5077  2.1183
19152SOL    HW259451   2.971   5.944   2.502  1.2930 -1.1364  1.7921
19153SOL     OW59452   7.290   4.427   6.860 -0.4292 -0.0661  0.2603
19153SOL    HW159453   7.349   4.352   6.868  0.2209  0.2448 -1.1497
19153SOL    HW259454   7.347   4.504   6.868 -0.9871  0.2681  1.0573
19154SOL     OW59455   3.027   5.968   1.455 -0.1407  0.0915  0.8145
19154SOL    HW159456   3.003   5.912   1.382 -0.0455  1.1321 -0.0415
19154SOL    HW259457   2.962   6.038   1.454 -0.3122 -0.0310  1.9175
19155SOL     OW59458   6.301   1.144   4.710  0.2457  0.4089 -0.3584
19155SOL    HW159459   6.363   1.147   4.637  1.0467  0.7659  0.3154
19155SOL    HW259460   6.353   1.170   4.786  0.0419 -2.1164  0.7499
19156SOL     OW59461   5.331   5.332   8.887  0.7044  0.8683 -0.4082
19156SOL    HW159462   5.334   5.421   8.852 -1.0250  0.8210 -0.7305
19156SOL    HW259463   5.317   5.344   8.980  1.8268  0.9328 -0.2321
19157SOL     OW59464   0.812   8.761   7.963 -0.2232  0.1615 -0.4080
19157SOL    HW159465   0.814   8.681   7.911 -0.3662 -0.6021  0.7476
19157SOL    HW259466   0.854   8.827   7.907 -0.6287 -0.5674 -1.5990
19158SOL     OW59467   2.880   3.940   4.816 -0.4230  0.4956  0.6490
19158SOL    HW159468   2.879   3.868   4.753 -2.5630  0.4530  0.6848
19158SOL    HW259469   2.964   3.984   4.800  0.2538 -1.0842 -0.3982
19159SOL     OW59470   7.022   4.942   5.171  0.9207 -0.1494 -0.2110
19159SOL    HW159471   7.100   4.916   5.122  1.3956 -0.6283  0.7769
19159SOL    HW259472   7.056   4.982   5.251  0.1533 -0.1769  0.1371
19160SOL     OW59473   3.066   5.200   5.304  0.0654 -0.5318 -0.1619
19160SOL    HW159474   3.075   5.105   5.299 -0.7175 -0.6159  0.0264
19160SOL    HW259475   3.156   5.232   5.311  0.2496 -1.3985  2.2185
19161SOL     OW59476   2.364   0.410   3.468 -0.3532 -0.0032  0.5900
19161SOL    HW159477   2.336   0.494   3.505 -0.7427  0.2348 -0.2225
19161SOL    HW259478   2.445   0.389   3.515  0.7431  1.7163 -0.4143
19162SOL     OW59479   5.521   1.728   5.438 -0.2090 -0.0832  0.0106
19162SOL    HW159480   5.507   1.642   5.399  1.8535 -0.0948 -0.8586
19162SOL    HW259481   5.544   1.784   5.364  5.6784 -0.4826  0.9968
19163SOL     OW59482   3.630   2.409   6.231 -0.1043 -0.2324 -0.1488
19163SOL    HW159483   3.587   2.465   6.167 -0.3491 -0.0667  0.1569
19163SOL    HW259484   3.586   2.324   6.222  1.0452 -0.7154 -1.4131
19164SOL     OW59485   4.991   4.288   2.678  0.8645 -0.2428 -0.2072
19164SOL    HW159486   4.962   4.368   2.633 -0.2007  0.0611  0.9672
19164SOL    HW259487   5.062   4.318   2.735  0.8282 -0.2534 -0.1579
19165SOL     OW59488   6.625   8.297   3.556 -0.2916  0.1743 -0.0705
19165SOL    HW159489   6.677   8.234   3.506  0.8630  2.5949 -2.1609
19165SOL    HW259490   6.657   8.288   3.646  1.2484 -0.8350 -0.6656
19166SOL     OW59491   5.641   5.969   6.814 -0.5505  0.0052  0.3004
19166SOL    HW159492   5.592   5.916   6.751 -0.4670 -0.3541  0.5349
19166SOL    HW259493   5.722   5.920   6.827 -0.0329  0.6972 -0.2431
19167SOL     OW59494   7.151   6.167   0.986 -0.1319  0.4851  0.3046
19167SOL    HW159495   7.155   6.081   1.029  0.3742  0.5200  0.3313
19167SOL    HW259496   7.057   6.184   0.978 -0.2604 -0.5293 -0.6356
19168SOL     OW59497   6.280   7.733   6.883  0.3361  0.1364 -0.2292
19168SOL    HW159498   6.245   7.791   6.815  1.5461  0.6724 -0.4281
19168SOL    HW259499   6.375   7.742   6.875  0.5295 -1.2330  0.3113
19169SOL     OW59500   6.133   2.999   0.975 -0.1138 -1.1895 -0.5042
19169SOL    HW159501   6.208   3.021   0.920 -0.1656  1.4077  0.2942
19169SOL    HW259502   6.058   3.039   0.929 -0.3955 -0.4453  0.5470
19170SOL     OW59503   8.197   5.481   1.657 -0.0738 -0.2358 -0.5566
19170SOL    HW159504   8.141   5.414   1.696 -0.1523  0.6891  1.0460
19170SOL    HW259505   8.138   5.534   1.604  0.2234 -2.1687 -2.9914
19171SOL     OW59506   0.242   0.864   5.978  0.2269  0.4801 -0.0348
19171SOL    HW159507   0.296   0.817   6.042  1.0066  0.2472 -0.8478
19171SOL    HW259508   0.188   0.797   5.937  1.6165  0.1906 -1.4693
19172SOL     OW59509   7.444   2.608   4.508  0.0659  0.1304 -0.1749
19172SOL    HW159510   7.522   2.593   4.562 -0.5883  1.4208  1.1700
19172SOL    HW259511   7.459   2.554   4.430  2.6596  0.9308 -0.3202
19173SOL     OW59512   0.948   8.053   8.338  0.2171 -0.2491  0.2248
19173SOL    HW159513   1.024   8.110   8.325 -1.6803  2.3195 -0.5826
19173SOL    HW259514   0.898   8.095   8.409 -0.9953 -1.2353  0.0003
19174SOL     OW59515   6.294   3.822   8.340 -0.1018 -0.5503  0.3222
19174SOL    HW159516   6.378   3.861   8.361 -1.0555  1.3304  0.8499
19174SOL    HW259517   6.267   3.779   8.422 -1.2056  1.8917  1.3450
19175SOL     OW59518   6.212   7.397   2.256  0.2157  0.6241  0.0556
19175SOL    HW159519   6.293   7.392   2.204  0.6130  0.1035  0.6992
19175SOL    HW259520   6.208   7.489   2.284  0.8537  0.5499  0.4238
19176SOL     OW59521   3.205   0.220   7.560 -0.5621  0.2175  0.2468
19176SOL    HW159522   3.141   0.167   7.512 -0.0875  1.4201 -1.8175
19176SOL    HW259523   3.152   0.274   7.619 -1.3997  0.6598 -0.8844
19177SOL     OW59524   7.739   6.357   2.556  0.7339  0.5893 -0.6231
19177SOL    HW159525   7.723   6.266   2.580  1.0843  1.1027  1.7130
19177SOL    HW259526   7.724   6.407   2.636 -0.6416  2.7654 -2.1102
19178SOL     OW59527   5.980   3.009   7.971 -0.6300 -0.3429 -0.2331
19178SOL    HW159528   5.889   2.993   7.945 -0.2838 -2.7628 -0.2341
19178SOL    HW259529   6.008   3.082   7.916 -2.1219 -0.5192 -1.2972
19179SOL     OW59530   2.581   5.108   3.676 -0.0621 -0.4497 -0.0119
19179SOL    HW159531   2.549   5.023   3.705 -1.3031  0.1594  0.4733
19179SOL    HW259532   2.639   5.088   3.602  1.4533 -1.8739  1.4669
19180SOL     OW59533   4.693   8.538   2.568  0.0299  0.0221  0.1728
19180SOL    HW159534   4.654   8.563   2.651  1.5614 -2.1794  1.6819
19180SOL    HW259535   4.647   8.458   2.543  0.3214  0.0606 -0.5078
19181SOL     OW59536   1.700   1.614   7.803  0.1659  0.2267 -0.1673
19181SOL    HW159537   1.743   1.628   7.719 -1.4412  0.4685 -1.0002
19181SOL    HW259538   1.646   1.692   7.816  0.3689  0.1867  1.0928
19182SOL     OW59539   8.402   6.658   2.101  0.1798  0.1517 -0.1001
19182SOL    HW159540   8.322   6.638   2.149  1.4576 -3.0175  1.0226
19182SOL    HW259541   8.427   6.745   2.131 -1.7930  0.3668  1.0650
19183SOL     OW59542   5.621   8.285   0.463 -0.2653 -0.5580 -0.2285
19183SOL    HW159543   5.620   8.338   0.542 -1.8111  0.7809 -1.0782
19183SOL    HW259544   5.627   8.195   0.494  1.3050  0.0179  1.2919
19184SOL     OW59545   2.561   8.168   8.831 -1.0117 -0.2620 -0.4716
19184SOL    HW159546   2.631   8.109   8.860 -1.6965 -2.1160 -2.3802
19184SOL    HW259547   2.574   8.177   8.737 -0.7354  3.0295 -0.2622
19185SOL     OW59548   6.814   8.686   7.524  0.4719  0.4302 -0.3049
19185SOL    HW159549   6.752   8.753   7.496  0.4910  0.3114 -0.6374
19185SOL    HW259550   6.764   8.632   7.585  0.2471  0.3365 -0.5684
19186SOL     OW59551   2.445   6.175   6.677  0.5786  0.0969  0.2964
19186SOL    HW159552   2.420   6.204   6.589  0.5333 -2.5103 -0.6330
19186SOL    HW259553   2.416   6.246   6.734 -0.2558  1.4499 -1.6843
19187SOL     OW59554   7.065   5.293   7.669  0.6065  0.1245 -0.4403
19187SOL    HW159555   7.035   5.250   7.589 -0.2056  0.3979 -0.2907
19187SOL    HW259556   7.114   5.225   7.715 -0.2254 -0.4971 -0.4544
19188SOL     OW59557   8.890   2.787   4.838 -0.1462 -0.1852  0.7699
19188SOL    HW159558   8.960   2.725   4.859  0.2668  0.1273  0.3505
19188SOL    HW259559   8.813   2.751   4.880  0.5120  0.1039  2.2736
19189SOL     OW59560   7.751   2.923   3.089  0.2418 -0.0256  0.5147
19189SOL    HW159561   7.730   2.950   3.000 -1.2060 -0.8859  0.5654
19189SOL    HW259562   7.748   2.827   3.087  1.7193 -0.1170  1.1550
19190SOL     OW59563   6.540   2.636   8.270 -0.0507  0.1912 -0.0211
19190SOL    HW159564   6.468   2.601   8.218  0.8166 -0.8536 -0.5625
19190SOL    HW259565   6.557   2.568   8.335  0.6026  0.3312 -0.0454
19191SOL     OW59566   2.914   2.675   7.144  0.0746 -0.1781  0.5388
19191SOL    HW159567   2.903   2.744   7.210 -0.9387 -0.4426  0.6588
19191SOL    HW259568   3.005   2.685   7.114  0.6144 -0.1610  2.0795
19192SOL     OW59569   5.691   0.638   6.352 -0.7131 -0.4089  0.3866
19192SOL    HW159570   5.722   0.550   6.376  0.4098  0.3560  1.9917
19192SOL    HW259571   5.597   0.636   6.370 -0.3701 -0.7254  2.4218
19193SOL     OW59572   3.409   8.610   6.906  0.0740 -0.5198 -0.5817
19193SOL    HW159573   3.421   8.520   6.874  0.5784 -0.6778  0.0429
19193SOL    HW259574   3.386   8.600   6.998  0.3075  0.0000 -0.4647
19194SOL     OW59575   4.107   3.358   4.363  0.1563 -0.2795  0.3592
19194SOL    HW159576   4.186   3.307   4.377  1.6462  1.6443 -0.5875
19194SOL    HW259577   4.113   3.388   4.273 -2.0107 -0.5989  0.0426
19195SOL     OW59578   8.602   5.895   5.245 -0.1853 -0.1186  0.2599
19195SOL    HW159579   8.536   5.879   5.312 -0.7252  0.2882 -0.1647
19195SOL    HW259580   8.600   5.817   5.190  0.0793 -0.3444  0.5733
19196SOL     OW59581   5.465   1.179   2.923  0.4073 -0.0992 -0.3974
19196SOL    HW159582   5.511   1.258   2.898  0.8371 -0.5875 -1.1906
19196SOL    HW259583   5.372   1.203   2.921  0.5856  0.8460  1.0760
19197SOL     OW59584   8.849   8.799   1.634  0.2023 -0.0720  0.8216
19197SOL    HW159585   8.911   8.858   1.675  0.7935  0.4566 -0.7814
19197SOL    HW259586   8.793   8.855   1.580 -0.2290 -0.7936  0.4968
19198SOL     OW59587   2.645   6.418   7.481  0.4033 -0.1915  0.5299
19198SOL    HW159588   2.565   6.419   7.428  0.5117 -0.7297  0.3497
19198SOL    HW259589   2.691   6.338   7.453  2.3908  1.5138 -1.4434
19199SOL     OW59590   1.269   0.272   0.736  0.5052 -0.7090  0.5100
19199SOL    HW159591   1.342   0.329   0.714  1.0097 -1.5858 -0.1714
19199SOL    HW259592   1.297   0.185   0.709 -0.0808 -1.3634  1.8688
19200SOL     OW59593   7.475   7.899   5.612 -0.0258  0.0496  0.2665
19200SOL    HW159594   7.417   7.935   5.545 -0.2366  0.0650  0.4563
19200SOL    HW259595   7.419   7.842   5.665  0.0943  0.2030  0.5603
19201SOL     OW59596   6.679   6.757   4.036  0.1143 -0.4625 -0.6201
19201SOL    HW159597   6.678   6.711   4.120 -0.4474 -0.4012 -0.5879
19201SOL    HW259598   6.638   6.841   4.055  0.3513 -0.2895 -0.8706
19202SOL     OW59599   7.306   0.661   6.199  0.7219 -0.3599  0.2936
19202SOL    HW159600   7.395   0.624   6.200  1.1041  0.5300  0.9950
19202SOL    HW259601   7.317   0.749   6.163  0.4085  0.3767  1.9010
19203SOL     OW59602   1.951   0.083   3.414 -0.2552  0.0721  0.1094
19203SOL    HW159603   2.008   0.159   3.405 -0.9290  0.6885  0.9671
19203SOL    HW259604   2.008   0.008   3.398  0.3078  0.7646 -1.2643
19204SOL     OW59605   5.751   2.024   2.241  0.4549 -0.5233 -0.7115
19204SOL    HW159606   5.840   2.005   2.272 -0.0726 -1.8390  0.0428
19204SOL    HW259607   5.708   1.939   2.235 -0.1554 -0.1237 -3.0524
19205SOL     OW59608   8.380   2.505   1.468 -0.1905  0.2841 -0.1085
19205SOL    HW159609   8.365   2.410   1.476  0.9191  0.1323  0.3238
19205SOL    HW259610   8.474   2.515   1.481 -0.2788  1.4390 -0.3260
19206SOL     OW59611   8.455   2.928   1.841 -0.2731  0.2652 -0.4171
19206SOL    HW159612   8.494   2.891   1.920  0.1705 -0.5495 -0.9987
19206SOL    HW259613   8.496   3.014   1.833 -0.1540  0.2606  0.1241
19207SOL     OW59614   0.240   3.453   1.914  0.2053  0.0486  0.1049
19207SOL    HW159615   0.330   3.487   1.919 -0.4811  1.8805  1.2204
19207SOL    HW259616   0.197   3.507   1.848  0.3177 -1.9724 -1.7270
19208SOL     OW59617   7.202   0.078   6.924  0.0754 -0.3049  0.4708
19208SOL    HW159618   7.245   0.002   6.963 -2.0414 -0.0012  3.8196
19208SOL    HW259619   7.270   0.146   6.921  1.3757 -1.5878 -0.3499
19209SOL     OW59620   6.987   2.034   4.979 -0.4536  0.2155  0.6893
19209SOL    HW159621   6.912   2.089   5.000 -0.1759  0.0012  2.4352
19209SOL    HW259622   6.951   1.946   4.971 -0.6527  0.3891 -0.4024
19210SOL     OW59623   4.036   1.432   5.165  0.3875  0.4944  0.0098
19210SOL    HW159624   4.089   1.356   5.190  1.3686  1.0119 -0.4404
19210SOL    HW259625   4.006   1.412   5.076 -0.1467  0.2220  0.2478
19211SOL     OW59626   7.046   3.232   0.484  0.2188 -0.4956 -0.1402
19211SOL    HW159627   7.029   3.303   0.422 -0.8253 -0.0526  0.6293
19211SOL    HW259628   7.079   3.275   0.562  0.9997 -1.0002 -0.1826
19212SOL     OW59629   5.217   2.024   3.185  0.0150  0.2279 -0.1449
19212SOL    HW159630   5.293   2.061   3.230  0.0409 -0.5120  0.4433
19212SOL    HW259631   5.142   2.067   3.225  0.0349 -0.4700  0.6662
19213SOL     OW59632   4.269   6.873   7.651 -0.2696 -0.1343 -0.0497
19213SOL    HW159633   4.294   6.964   7.636 -1.6959  0.7363  2.2215
19213SOL    HW259634   4.182   6.879   7.690 -1.7652 -2.6864 -2.6011
19214SOL     OW59635   1.062   0.638   7.758  0.1385  0.0858  0.2817
19214SOL    HW159636   1.002   0.702   7.796 -0.9778 -1.5405  1.3835
19214SOL    HW259637   1.011   0.594   7.690  0.3621 -0.7051  0.6148
19215SOL     OW59638   7.887   4.190   2.776 -0.4597 -0.6632  0.1706
19215SOL    HW159639   7.798   4.185   2.741 -1.2199 -0.3841  1.9639
19215SOL    HW259640   7.903   4.103   2.813  0.9798 -1.5071 -2.2323
19216SOL     OW59641   2.850   8.356   1.356  0.0496  0.1007 -0.5166
19216SOL    HW159642   2.787   8.351   1.428  0.0159  1.0246 -0.4701
19216SOL    HW259643   2.800   8.391   1.283  0.7317  1.8765 -0.1762
19217SOL     OW59644   3.040   4.803   8.588  0.2687 -0.2935  0.5931
19217SOL    HW159645   2.946   4.788   8.592  0.0642  0.1425 -1.4531
19217SOL    HW259646   3.055   4.883   8.639 -0.6438  0.2931 -0.0402
19218SOL     OW59647   8.245   1.299   2.678 -0.2466  0.0173  0.1333
19218SOL    HW159648   8.173   1.313   2.739 -0.5529  5.2966 -1.0164
19218SOL    HW259649   8.324   1.318   2.730  0.0979 -1.9670  0.4067
19219SOL     OW59650   2.804   7.643   5.867  0.4034 -0.1583  0.7632
19219SOL    HW159651   2.772   7.606   5.949  1.3697 -0.2985  1.0911
19219SOL    HW259652   2.847   7.571   5.822 -0.3737 -0.1563 -0.0205
19220SOL     OW59653   3.123   1.688   6.285 -0.0228 -0.1445  0.1614
19220SOL    HW159654   3.097   1.599   6.310  1.1003 -0.5540 -0.0895
19220SOL    HW259655   3.177   1.677   6.208 -0.3280  0.8185 -0.2057
19221SOL     OW59656   6.179   2.906   2.962 -0.3940 -0.4100 -0.0175
19221SOL    HW159657   6.239   2.855   3.017 -1.1081 -2.4347 -1.0064
19221SOL    HW259658   6.183   2.994   2.998  0.8147 -1.1709  1.8854
19222SOL     OW59659   7.408   3.211   0.369 -0.4930 -0.2155  0.1754
19222SOL    HW159660   7.359   3.134   0.338 -0.7491 -0.3629  0.9429
19222SOL    HW259661   7.429   3.191   0.460 -1.0007  0.8343  0.5422
19223SOL     OW59662   6.583   2.448   7.274 -0.3376  0.2028 -0.4889
19223SOL    HW159663   6.571   2.456   7.369  2.0484  0.4430 -0.1663
19223SOL    HW259664   6.500   2.480   7.237 -0.9568  1.0341  1.4879
19224SOL     OW59665   3.711   0.601   7.820 -0.1419 -0.1738  0.7961
19224SOL    HW159666   3.698   0.694   7.842  2.4709  0.4705 -0.0219
19224SOL    HW259667   3.801   0.583   7.846 -0.3470 -2.3120  0.2210
19225SOL     OW59668   1.531   5.843   5.849  0.2868  0.1528  0.3647
19225SOL    HW159669   1.547   5.904   5.921 -0.7914  1.5353 -0.5087
19225SOL    HW259670   1.594   5.773   5.862  1.9167  1.7003  1.1330
19226SOL     OW59671   6.235   8.105   7.900  0.7465 -0.0518 -0.6571
19226SOL    HW159672   6.263   8.196   7.891  0.0625  0.2019 -0.3064
19226SOL    HW259673   6.289   8.070   7.971  2.2285 -0.4435 -1.9074
19227SOL     OW59674   7.965   1.286   1.837 -0.0684  0.0002 -0.3403
19227SOL    HW159675   8.025   1.216   1.814  0.2857  0.6598 -1.5625
19227SOL    HW259676   8.021   1.364   1.845 -0.4172  0.1268  1.2311
19228SOL     OW59677   7.124   7.239   0.248 -0.4327 -0.3237  0.0386
19228SOL    HW159678   7.059   7.182   0.206 -1.3833  0.7823 -0.0692
19228SOL    HW259679   7.183   7.265   0.177 -0.5054 -0.5038 -0.0875
19229SOL     OW59680   2.204   1.678   2.518  0.2272 -0.3883 -0.4749
19229SOL    HW159681   2.267   1.670   2.590 -0.1357 -1.7473 -0.2704
19229SOL    HW259682   2.195   1.772   2.503  1.5135 -0.1477  0.1887
19230SOL     OW59683   7.554   0.919   2.539  0.8804 -0.2230  0.2406
19230SOL    HW159684   7.608   0.978   2.486  1.7961 -0.8978  0.3846
19230SOL    HW259685   7.618   0.866   2.588  0.0738  0.7317  2.4411
19231SOL     OW59686   8.217   4.939   8.886 -0.3106 -0.2714  0.4709
19231SOL    HW159687   8.129   4.977   8.887 -0.4932 -0.4278 -2.2158
19231SOL    HW259688   8.203   4.845   8.877  0.0976 -0.2731 -0.2591
19232SOL     OW59689   4.716   6.468   4.090 -0.6043 -0.6356  0.4099
19232SOL    HW159690   4.804   6.442   4.063  0.0996  1.3643  0.6067
19232SOL    HW259691   4.684   6.393   4.140 -0.2312 -2.6281 -2.1411
19233SOL     OW59692   7.306   2.447   5.466 -0.2799  0.2174  0.1698
19233SOL    HW159693   7.219   2.484   5.449 -0.8101 -0.9680  0.1510
19233SOL    HW259694   7.338   2.422   5.380 -0.1369  0.1971  0.2291
19234SOL     OW59695   6.297   0.350   4.421  0.5775  0.2030 -0.1002
19234SOL    HW159696   6.211   0.348   4.463  0.8414  0.1502  0.4414
19234SOL    HW259697   6.303   0.266   4.375  0.2157  0.3360 -0.3943
19235SOL     OW59698   2.677   0.016   8.596 -0.6369  0.3815  0.1918
19235SOL    HW159699   2.715  -0.054   8.543  1.8004 -0.6731  3.0345
19235SOL    HW259700   2.722   0.095   8.566 -0.3611  0.0438 -0.2985
19236SOL     OW59701   2.353   0.612   2.408  0.0528  0.0047 -0.1563
19236SOL    HW159702   2.371   0.681   2.344  0.7729  1.2826  1.3432
19236SOL    HW259703   2.257   0.605   2.409  0.0251  0.0654 -1.2369
19237SOL     OW59704   5.502   1.507   1.209 -0.1173 -0.3670 -0.1148
19237SOL    HW159705   5.571   1.493   1.274 -1.3384  1.3771  1.6912
19237SOL    HW259706   5.422   1.473   1.251 -0.6891 -0.6928 -1.4020
19238SOL     OW59707   5.782   1.752   7.735 -0.1631 -0.2505  0.7378
19238SOL    HW159708   5.837   1.829   7.717 -1.4819  0.5286 -0.0536
19238SOL    HW259709   5.811   1.686   7.672 -0.9227  0.5680 -0.5067
19239SOL     OW59710   3.294   2.738   1.651 -0.3076  0.4751  0.6415
19239SOL    HW159711   3.226   2.739   1.584 -0.3505 -2.1914  0.5335
19239SOL    HW259712   3.258   2.682   1.720  1.2756 -0.0358  1.0924
19240SOL     OW59713   1.214   2.295   6.742 -0.3487  0.3513 -0.4801
19240SOL    HW159714   1.289   2.273   6.687  0.2298 -0.5802  0.6352
19240SOL    HW259715   1.252   2.347   6.814 -1.0824  1.5405 -0.9198
19241SOL     OW59716   7.939   4.949   6.825  0.1159 -0.1590 -0.1548
19241SOL    HW159717   7.990   4.935   6.905 -1.9112  0.2840  1.2965
19241SOL    HW259718   8.001   4.931   6.754  2.3095  0.4579  1.4671
19242SOL     OW59719   8.357   5.372   4.870  0.3247  0.4202  0.7797
19242SOL    HW159720   8.380   5.279   4.872 -3.8806 -0.9239 -1.7665
19242SOL    HW259721   8.360   5.399   4.962  0.9811 -2.4149  1.6959
19243SOL     OW59722   2.785   7.922   5.805  0.4845 -0.5919 -0.1365
19243SOL    HW159723   2.785   7.907   5.711 -0.2228 -0.1818 -0.2093
19243SOL    HW259724   2.788   7.834   5.843 -1.4622 -0.9041 -0.5529
19244SOL     OW59725   5.938   5.221   6.620  0.2693  0.4657  0.2410
19244SOL    HW159726   6.016   5.276   6.613  0.1682  0.5753 -0.0473
19244SOL    HW259727   5.884   5.246   6.545 -0.0367  0.3771  0.4299
19245SOL     OW59728   3.685   1.002   2.598 -0.6013  0.0033  0.2187
19245SOL    HW159729   3.635   0.969   2.673 -1.5589 -0.8023 -0.7287
19245SOL    HW259730   3.665   1.096   2.595 -2.7564 -0.4268 -0.5908
19246SOL     OW59731   8.048   2.500   1.523 -0.1467 -0.4288 -0.0452
19246SOL    HW159732   8.051   2.534   1.433 -1.5913 -2.0253 -0.7507
19246SOL    HW259733   7.987   2.558   1.568  2.1851  1.7111  0.5931
19247SOL     OW59734   2.583   6.024   7.162  0.1266 -0.3857  0.2729
19247SOL    HW159735   2.639   5.994   7.090 -1.0678 -1.2960 -0.3176
19247SOL    HW259736   2.522   5.952   7.176 -1.0818  0.6775  0.6825
19248SOL     OW59737   7.727   3.717   7.341  0.1890 -0.3374  0.0735
19248SOL    HW159738   7.721   3.728   7.436 -2.1147  0.6586 -0.1097
19248SOL    HW259739   7.659   3.775   7.306  0.6324 -1.0686 -2.1701
19249SOL     OW59740   1.156   5.135   5.005 -0.2397  0.1543  0.0204
19249SOL    HW159741   1.109   5.118   5.086 -1.4589 -0.3834 -0.7702
19249SOL    HW259742   1.140   5.228   4.987 -0.4602  0.1275  0.0837
19250SOL     OW59743   5.062   3.990   1.969  0.0512 -0.5195 -0.3833
19250SOL    HW159744   5.082   3.896   1.960 -3.7434 -1.6735  1.4501
19250SOL    HW259745   5.059   4.005   2.063 -3.0110  0.4574 -0.5519
19251SOL     OW59746   4.167   8.633   2.444 -0.1628  0.1501  0.0236
19251SOL    HW159747   4.138   8.725   2.447 -0.5655  0.2335 -3.0916
19251SOL    HW259748   4.251   8.636   2.398  0.4604 -0.9835  1.0188
19252SOL     OW59749   2.718   6.443   2.064 -0.0846  0.2085 -0.1401
19252SOL    HW159750   2.766   6.447   1.981 -0.7446  0.7721 -0.5008
19252SOL    HW259751   2.661   6.366   2.055 -1.8872  1.5769 -1.1947
19253SOL     OW59752   1.881   3.812   8.209  0.5967 -0.1204 -0.1425
19253SOL    HW159753   1.875   3.767   8.125  1.1920  0.4770 -0.5109
19253SOL    HW259754   1.790   3.817   8.240  0.3539 -0.1575 -0.8443
19254SOL     OW59755   4.036   3.303   8.603 -0.1646  0.5563  0.6076
19254SOL    HW159756   4.041   3.217   8.645 -0.4000  0.0152 -0.4344
19254SOL    HW259757   4.108   3.353   8.641 -0.1720 -0.0275  1.4013
19255SOL     OW59758   1.547   0.483   3.768  0.0088  0.6357 -0.0246
19255SOL    HW159759   1.614   0.546   3.742  0.8011 -0.2548 -0.1681
19255SOL    HW259760   1.515   0.447   3.686 -0.6757  1.0683  0.0417
19256SOL     OW59761   1.050   7.448   6.161  0.6313 -0.1483 -0.4036
19256SOL    HW159762   1.142   7.426   6.146 -0.0644 -2.2805 -2.0220
19256SOL    HW259763   1.003   7.407   6.088 -1.8311 -1.0630  1.5617
19257SOL     OW59764   0.620   6.703   8.411  0.2752 -0.3468  0.2966
19257SOL    HW159765   0.656   6.786   8.381  0.4155 -0.7678 -0.7465
19257SOL    HW259766   0.560   6.727   8.481 -0.1022  0.6829 -0.3555
19258SOL     OW59767   0.473   6.176   1.327  0.2489 -0.2460  0.0093
19258SOL    HW159768   0.552   6.192   1.276  0.6499  1.0308  0.9812
19258SOL    HW259769   0.504   6.134   1.407 -0.1946 -0.7739 -0.0868
19259SOL     OW59770   2.502   0.117   4.394 -0.0640  0.1582  0.3170
19259SOL    HW159771   2.419   0.164   4.380  0.1503  1.2160  2.2675
19259SOL    HW259772   2.475   0.029   4.422 -0.5192  0.3196  0.3991
19260SOL     OW59773   6.337   0.655   6.072  0.0497  0.9339  0.2458
19260SOL    HW159774   6.365   0.682   5.985  0.9012  0.2786  0.3025
19260SOL    HW259775   6.280   0.579   6.057  0.5930  0.5093  0.2670
19261SOL     OW59776   6.678   8.162   6.561  0.6770 -0.0503  0.3239
19261SOL    HW159777   6.721   8.091   6.515 -0.4114 -0.0555 -0.7341
19261SOL    HW259778   6.662   8.128   6.649  1.5145 -0.5492  0.2887
19262SOL     OW59779   2.442   1.421   5.705 -0.3209 -0.1257 -0.1876
19262SOL    HW159780   2.350   1.399   5.719  0.1384 -0.8151  2.3436
19262SOL    HW259781   2.441   1.486   5.635 -2.6006 -1.0183 -1.0659
19263SOL     OW59782   4.693   0.568   2.427  0.0924  0.1512 -0.5828
19263SOL    HW159783   4.734   0.654   2.415  1.7479 -0.9194 -3.9076
19263SOL    HW259784   4.766   0.509   2.445 -0.8618 -0.7789  0.3848
19264SOL     OW59785   3.234   7.074   7.364  0.1387 -0.6360 -0.0565
19264SOL    HW159786   3.143   7.096   7.341  0.4303  0.2542 -0.4137
19264SOL    HW259787   3.270   7.035   7.285  0.2507 -0.4018 -0.1216
19265SOL     OW59788   6.908   7.090   0.979 -0.2001 -0.0981  0.0732
19265SOL    HW159789   6.942   7.001   0.988 -1.5871 -0.7001 -0.2896
19265SOL    HW259790   6.819   7.085   1.015 -0.4733  1.0203 -0.4051
19266SOL     OW59791   4.195   7.585   8.221 -0.7130 -0.0087 -0.5098
19266SOL    HW159792   4.149   7.593   8.137 -1.1242 -3.2352 -0.6865
19266SOL    HW259793   4.283   7.554   8.198 -0.9647 -1.3399  0.2643
19267SOL     OW59794   4.194   7.546   1.605  0.3012  0.4089  0.6384
19267SOL    HW159795   4.211   7.625   1.658 -1.9115  0.5553  1.2450
19267SOL    HW259796   4.105   7.558   1.573  0.2924 -1.4041 -0.1124
19268SOL     OW59797   8.734   7.570   0.280  0.5802 -0.4351  0.5456
19268SOL    HW159798   8.655   7.589   0.229  0.2083  1.2883  1.6757
19268SOL    HW259799   8.802   7.555   0.215 -0.2878 -0.1625 -0.4497
19269SOL     OW59800   3.066   5.051   7.375  0.3055  0.1586 -0.2053
19269SOL    HW159801   3.070   5.012   7.462 -2.2677 -0.8833 -0.4557
19269SOL    HW259802   3.150   5.030   7.335  1.1053 -0.2978  1.6477
19270SOL     OW59803   0.295   4.989   5.145  0.3419 -0.1841 -0.6139
19270SOL    HW159804   0.321   4.973   5.236 -1.2367 -2.2002 -0.4635
19270SOL    HW259805   0.371   4.963   5.093  0.4380 -1.2601  0.0439
19271SOL     OW59806   7.054   1.732   8.480 -0.2985 -0.7096 -0.0890
19271SOL    HW159807   7.035   1.695   8.566 -1.1276 -0.5233 -0.1852
19271SOL    HW259808   7.023   1.822   8.485  1.1841 -0.1813 -0.0415
19272SOL     OW59809   4.897   7.912   5.295  0.0111  0.4213  0.4259
19272SOL    HW159810   4.968   7.938   5.237  0.9706 -2.9272 -0.1036
19272SOL    HW259811   4.819   7.954   5.258  0.9080 -0.0750 -2.1894
19273SOL     OW59812   4.136   4.472   4.052  0.2338 -0.3213  0.7503
19273SOL    HW159813   4.049   4.462   4.092  0.1735  0.7846  0.9434
19273SOL    HW259814   4.197   4.442   4.120  0.1074  1.1369  1.5643
19274SOL     OW59815   5.424   0.959   1.202  0.4419  0.2559  0.0155
19274SOL    HW159816   5.392   0.889   1.145 -0.5401  0.2228  0.5845
19274SOL    HW259817   5.519   0.952   1.196  0.3635 -0.6007 -0.5755
19275SOL     OW59818   8.734   2.634   6.899  0.1573  0.7287  0.3647
19275SOL    HW159819   8.791   2.614   6.824  0.5373  0.8316  0.6228
19275SOL    HW259820   8.744   2.728   6.913  0.3133  0.6600  0.7267
19276SOL     OW59821   4.374   7.642   7.420 -0.4250  0.2158  0.3955
19276SOL    HW159822   4.336   7.624   7.334  0.4579 -1.0835  0.2554
19276SOL    HW259823   4.411   7.558   7.447  2.9955  1.5398  0.2140
19277SOL     OW59824   7.538   4.900   0.409  0.3473  0.4898  0.6415
19277SOL    HW159825   7.463   4.946   0.372  1.2348  0.5148 -1.2101
19277SOL    HW259826   7.584   4.967   0.461 -1.0274  0.3985  2.0242
19278SOL     OW59827   0.689   8.849   1.573  0.3299  0.0981 -0.4675
19278SOL    HW159828   0.750   8.916   1.603 -0.0435  0.3338 -0.2314
19278SOL    HW259829   0.660   8.806   1.653  0.1701 -0.0005 -0.5782
19279SOL     OW59830   1.639   4.544   3.888 -0.6369 -0.0284  0.0356
19279SOL    HW159831   1.586   4.589   3.822  0.1580 -0.8283 -1.1811
19279SOL    HW259832   1.582   4.539   3.965 -1.5943  0.8998 -0.5864
19280SOL     OW59833   0.645   7.430   7.980  0.0143  0.2635 -0.3744
19280SOL    HW159834   0.730   7.431   8.024  0.3233 -0.6990 -0.9186
19280SOL    HW259835   0.593   7.368   8.032 -0.1250  0.3108 -0.4573
19281SOL     OW59836   5.618   5.752   6.237  0.6675  0.2299 -0.1947
19281SOL    HW159837   5.547   5.805   6.200  0.6626  0.8451  0.6625
19281SOL    HW259838   5.679   5.817   6.273  0.0295 -0.3466  2.0394
19282SOL     OW59839   3.614   0.180   1.580 -0.2905 -0.1748  0.2924
19282SOL    HW159840   3.664   0.231   1.517 -1.3771 -0.2523 -0.6508
19282SOL    HW259841   3.546   0.240   1.611 -0.2805 -0.4023  0.7702
19283SOL     OW59842   8.212   8.321   2.158 -0.1604 -0.0038  0.2148
19283SOL    HW159843   8.212   8.293   2.066 -1.7693  0.6740 -0.0210
19283SOL    HW259844   8.274   8.394   2.161  0.7546 -0.7422 -0.0731
19284SOL     OW59845   0.260   0.081   0.763  0.1654 -0.8739 -0.1069
19284SOL    HW159846   0.255  -0.011   0.787  0.2385 -0.9389 -0.3486
19284SOL    HW259847   0.318   0.119   0.829 -0.9090 -0.7331  0.8061
19285SOL     OW59848   4.194   0.532   7.476  0.5975 -0.2150 -0.6065
19285SOL    HW159849   4.168   0.456   7.528  0.9416  1.2169  1.8470
19285SOL    HW259850   4.119   0.592   7.482  0.0275 -0.5626 -3.1130
19286SOL     OW59851   6.862   0.579   1.171  0.0977 -0.4747 -0.7390
19286SOL    HW159852   6.816   0.662   1.185 -0.6108 -0.9962  0.1330
19286SOL    HW259853   6.793   0.517   1.146  0.3359 -1.2348  0.4368
19287SOL     OW59854   8.333   0.594   3.165 -0.1676  0.6705 -0.0055
19287SOL    HW159855   8.257   0.632   3.121  0.3574  0.4608 -1.1209
19287SOL    HW259856   8.305   0.585   3.257 -1.1980  1.3359 -0.2324
19288SOL     OW59857   6.442   7.691   3.620 -0.4213 -0.1545  0.6282
19288SOL    HW159858   6.485   7.659   3.541 -0.6492  0.5986  0.1826
19288SOL    HW259859   6.408   7.777   3.595  1.6463  1.2513  2.2512
19289SOL     OW59860   2.876   5.792   8.028 -0.2633  0.1865 -0.0442
19289SOL    HW159861   2.831   5.847   7.963  1.0072 -0.4111 -1.5026
19289SOL    HW259862   2.965   5.781   7.992  0.0923 -1.2203  1.1847
19290SOL     OW59863   7.312   0.431   4.602 -0.5493  0.2799 -0.2783
19290SOL    HW159864   7.404   0.417   4.579 -0.7388  1.5954 -2.0147
19290SOL    HW259865   7.313   0.501   4.666 -0.1889 -1.7917  2.1381
19291SOL     OW59866   6.695   3.573   6.030 -0.1924 -0.4967  0.6942
19291SOL    HW159867   6.666   3.615   6.111 -0.2610 -0.0504  0.4393
19291SOL    HW259868   6.617   3.571   5.974  0.6698  2.8198 -0.9176
19292SOL     OW59869   7.188   7.358   6.732 -0.0472  0.1067 -0.1241
19292SOL    HW159870   7.129   7.333   6.803  1.5673 -1.8128  0.6704
19292SOL    HW259871   7.241   7.429   6.769  0.4229 -0.5216  0.4531
19293SOL     OW59872   6.516   5.894   2.175 -0.6606 -0.2459  0.5687
19293SOL    HW159873   6.452   5.961   2.197 -0.6588  1.3740 -3.5068
19293SOL    HW259874   6.463   5.817   2.152 -1.0136  0.1224  0.1261
19294SOL     OW59875   0.422   3.538   0.255  0.0279 -0.1991  0.6205
19294SOL    HW159876   0.470   3.460   0.225 -0.4376 -0.3436  0.2399
19294SOL    HW259877   0.426   3.599   0.182  1.6097  0.7160  1.4275
19295SOL     OW59878   7.604   2.826   1.506 -0.9388 -0.0499 -0.3420
19295SOL    HW159879   7.610   2.921   1.513 -1.4301 -0.0708  0.5920
19295SOL    HW259880   7.521   2.805   1.550 -1.5100 -0.7930 -1.6989
19296SOL     OW59881   4.263   1.618   6.385 -0.0399 -0.1036 -0.2429
19296SOL    HW159882   4.289   1.662   6.304  2.1041  0.1940  0.5487
19296SOL    HW259883   4.214   1.685   6.433 -1.0761 -0.1930 -1.1372
19297SOL     OW59884   7.510   0.856   6.108  0.4181 -0.1487 -0.1056
19297SOL    HW159885   7.427   0.887   6.073  0.5311 -0.2552 -0.4676
19297SOL    HW259886   7.576   0.890   6.048  0.6963  0.5085  0.5538
19298SOL     OW59887   1.719   7.673   7.710 -0.3742 -0.5645  0.4438
19298SOL    HW159888   1.691   7.693   7.799  0.0586  0.8081  0.2900
19298SOL    HW259889   1.639   7.645   7.665 -0.5200 -1.6941  1.3545
19299SOL     OW59890   7.400   2.356   1.482 -0.4744 -0.1268  0.5076
19299SOL    HW159891   7.334   2.311   1.535  0.7644  0.3401  2.5419
19299SOL    HW259892   7.355   2.433   1.447 -1.2891 -0.3443  1.0589
19300SOL     OW59893   8.858   0.528   3.704  0.0026  0.1949 -0.5504
19300SOL    HW159894   8.791   0.516   3.637 -1.3292  2.6416  0.1830
19300SOL    HW259895   8.820   0.490   3.783 -0.0120  0.4811 -0.4155
19301SOL     OW59896   1.731   7.955   1.384  0.4867  0.2217 -0.1964
19301SOL    HW159897   1.806   7.986   1.435 -0.6136  0.2894  1.4805
19301SOL    HW259898   1.730   7.861   1.399 -0.6564  0.4104  1.1425
19302SOL     OW59899   0.756   3.014   3.087 -0.0131 -0.2236 -0.4123
19302SOL    HW159900   0.680   2.981   3.135  0.3657  0.4918  0.7254
19302SOL    HW259901   0.719   3.076   3.024 -0.4243 -0.2690 -0.2192
19303SOL     OW59902   6.564   0.360   7.515  0.1517 -0.2683 -0.2889
19303SOL    HW159903   6.594   0.386   7.602 -0.0303  0.1281 -0.3439
19303SOL    HW259904   6.547   0.266   7.523  1.5229 -0.5303 -0.2905
19304SOL     OW59905   5.316   1.242   5.390 -0.4663 -0.2988 -0.3707
19304SOL    HW159906   5.229   1.281   5.392  0.3513  1.5799  1.1331
19304SOL    HW259907   5.327   1.204   5.477 -0.1191 -1.3744 -0.8647
19305SOL     OW59908   6.195   5.639   0.045 -0.3658 -0.6731  0.1875
19305SOL    HW159909   6.190   5.670  -0.046  2.6362 -0.8933 -0.1574
19305SOL    HW259910   6.229   5.549   0.037  3.1203  0.3668  1.5026
19306SOL     OW59911   1.299   8.563   4.239 -0.3569 -0.2326  0.3547
19306SOL    HW159912   1.382   8.604   4.217 -0.2698 -0.8527 -0.5474
19306SOL    HW259913   1.256   8.624   4.298 -0.4924  1.4561 -1.3976
19307SOL     OW59914   7.772   7.451   5.190  0.1174 -0.0340 -0.0410
19307SOL    HW159915   7.788   7.475   5.099 -0.2372  0.5392  0.0390
19307SOL    HW259916   7.677   7.437   5.195  0.0993  0.1797  0.2895
19308SOL     OW59917   8.755   2.590   8.726 -0.1896 -0.1232  0.2125
19308SOL    HW159918   8.744   2.523   8.794 -0.0848  0.7459  1.1101
19308SOL    HW259919   8.717   2.669   8.765 -0.8247  0.2115 -1.0515
19309SOL     OW59920   4.207   5.486   2.165 -0.8205  0.4311 -0.0837
19309SOL    HW159921   4.291   5.523   2.139  0.3849 -1.1966  1.2523
19309SOL    HW259922   4.165   5.555   2.216  0.0070  1.0227 -0.1836
19310SOL     OW59923   8.740   4.487   5.403 -0.3356  0.4285  0.4229
19310SOL    HW159924   8.726   4.430   5.479  1.2517 -0.2108  0.2832
19310SOL    HW259925   8.707   4.572   5.431  0.0907  0.1768  1.7948
19311SOL     OW59926   8.386   5.568   0.119  0.1771 -0.0904 -0.3674
19311SOL    HW159927   8.296   5.550   0.093 -0.7355  2.2100  0.8676
19311SOL    HW259928   8.386   5.560   0.214  0.5269  2.4066 -0.0724
19312SOL     OW59929   8.770   6.795   0.128  0.3221  0.9676 -0.4061
19312SOL    HW159930   8.830   6.867   0.148  0.9624  0.3605 -0.0842
19312SOL    HW259931   8.711   6.792   0.204  1.4261  0.0225  0.4636
19313SOL     OW59932   6.595   3.900   2.522  0.1422 -0.7279  0.0711
19313SOL    HW159933   6.666   3.865   2.576  0.0316  0.7880  1.2839
19313SOL    HW259934   6.546   3.957   2.582 -0.8964 -0.1723 -1.2641
19314SOL     OW59935   1.821   6.666   5.842  0.3992  0.0773 -0.7751
19314SOL    HW159936   1.915   6.674   5.859  0.2882 -2.0594  1.3851
19314SOL    HW259937   1.810   6.576   5.811 -0.9397  0.3138 -1.0365
19315SOL     OW59938   5.142   5.816   5.062 -0.3399  0.2389  0.1660
19315SOL    HW159939   5.066   5.871   5.083  0.0215  1.0036 -0.5212
19315SOL    HW259940   5.161   5.771   5.145 -1.4286  0.1639  0.3983
19316SOL     OW59941   6.664   2.411   8.826 -0.2380 -0.2668  0.0055
19316SOL    HW159942   6.610   2.489   8.841  0.7919  0.4647 -0.0307
19316SOL    HW259943   6.607   2.338   8.852 -1.6968  0.3760 -1.2151
19317SOL     OW59944   1.441   6.932   7.283 -0.6608 -0.0539 -0.4937
19317SOL    HW159945   1.478   7.001   7.338  1.5762 -0.3904 -1.4429
19317SOL    HW259946   1.426   6.974   7.198 -0.2892 -0.4588 -0.7684
19318SOL     OW59947   5.793   3.910   0.290  0.0296 -0.3920  0.1270
19318SOL    HW159948   5.875   3.868   0.265  0.8042  0.3460  1.3042
19318SOL    HW259949   5.776   3.974   0.220  0.9216  0.0489  0.3094
19319SOL     OW59950   8.234   8.811   2.995  0.3150  0.1537  0.3793
19319SOL    HW159951   8.322   8.831   2.963  1.0831 -0.5051  1.9722
19319SOL    HW259952   8.185   8.892   2.982  1.4790  0.9080  0.5102
19320SOL     OW59953   6.332   6.075   2.326  0.0476 -0.8534 -0.2385
19320SOL    HW159954   6.250   6.032   2.304 -0.1911 -0.2086 -0.6386
19320SOL    HW259955   6.328   6.160   2.281  0.5223 -0.4303  0.4890
19321SOL     OW59956   5.679   6.638   8.832  0.1643  0.2442 -0.5257
19321SOL    HW159957   5.762   6.678   8.857 -0.2219  0.9500 -0.3380
19321SOL    HW259958   5.696   6.544   8.832  0.9203  0.3764 -0.3503
19322SOL     OW59959   4.110   0.288   2.658 -0.4467  0.3713  0.1126
19322SOL    HW159960   4.193   0.292   2.706 -0.6104 -1.1798  0.5799
19322SOL    HW259961   4.044   0.272   2.726 -0.9977  0.5419 -0.3732
19323SOL     OW59962   3.602   8.517   5.782 -0.1451 -0.0587 -0.1822
19323SOL    HW159963   3.516   8.543   5.749 -1.0582 -1.3648  0.9984
19323SOL    HW259964   3.664   8.573   5.737 -1.6561  1.2039 -0.7740
19324SOL     OW59965   6.775   5.073   1.791  0.6367 -0.1504 -0.0528
19324SOL    HW159966   6.859   5.115   1.773  0.6333  0.0114  0.2992
19324SOL    HW259967   6.711   5.126   1.742  0.8999 -1.1821 -1.5938
19325SOL     OW59968   3.328   1.035   1.446 -0.7821  0.0201 -0.6689
19325SOL    HW159969   3.404   1.089   1.468 -1.0116  1.0074 -2.1762
19325SOL    HW259970   3.285   1.020   1.530  0.7874 -0.1593  0.1556
19326SOL     OW59971   1.373   0.702   7.347  0.4188 -0.2992  0.4669
19326SOL    HW159972   1.307   0.755   7.392 -1.2276 -0.5597 -1.5143
19326SOL    HW259973   1.443   0.764   7.326 -0.0005  0.3798  1.0215
19327SOL     OW59974   6.445   1.801   2.673  0.6531 -0.2192 -0.3991
19327SOL    HW159975   6.480   1.872   2.620  3.2809 -1.5016 -0.5413
19327SOL    HW259976   6.453   1.832   2.763 -2.1230  1.2383 -0.5707
19328SOL     OW59977   4.333   7.610   0.538  0.0988 -0.3055 -0.7344
19328SOL    HW159978   4.239   7.619   0.553  0.4204  0.0024  1.4129
19328SOL    HW259979   4.370   7.694   0.565  1.1048 -0.8685 -0.2847
19329SOL     OW59980   5.909   3.063   0.154  0.5386 -0.4025  0.3626
19329SOL    HW159981   5.906   3.153   0.123  0.7718 -1.5378 -3.6236
19329SOL    HW259982   5.906   3.069   0.249 -1.5767  3.6698  0.2443
19330SOL     OW59983   1.541   3.095   5.032  0.2422  0.2009  0.1671
19330SOL    HW159984   1.504   3.039   4.963  1.1117  0.4057 -0.5017
19330SOL    HW259985   1.512   3.056   5.114 -1.9298  0.7098 -0.2951
19331SOL     OW59986   4.630   1.009   0.187  0.1918 -0.1622  0.1533
19331SOL    HW159987   4.689   0.944   0.224  1.0500 -0.1665 -1.1511
19331SOL    HW259988   4.625   0.987   0.094 -1.8295 -0.1152  0.2154
19332SOL     OW59989   2.832   4.186   4.539 -0.3784 -0.0979  0.7284
19332SOL    HW159990   2.908   4.165   4.594  0.5854  0.3775 -0.3736
19332SOL    HW259991   2.823   4.111   4.481 -1.5561 -0.7146  1.6668
19333SOL     OW59992   4.271   0.963   8.622 -0.4545 -0.1412  0.5340
19333SOL    HW159993   4.343   1.011   8.582 -0.5714 -1.1031 -0.9097
19333SOL    HW259994   4.277   0.984   8.716  0.1399  1.7749  0.1134
19334SOL     OW59995   2.065   2.681   2.123 -0.1096  0.1901  0.5275
19334SOL    HW159996   2.153   2.711   2.099 -0.2269 -0.0893 -0.2941
19334SOL    HW259997   2.053   2.599   2.075 -0.3878 -0.3851  1.5364
19335SOL     OW59998   7.161   0.038   3.189  0.1226 -0.1711 -0.3321
19335SOL    HW159999   7.086   0.028   3.130  0.7947 -0.7714 -1.1231
19335SOL    HW260000   7.161   0.131   3.212 -0.5637 -0.0606 -0.7259
19336SOL     OW60001   7.556   6.594   4.136  0.0274  0.2793 -0.2218
19336SOL    HW160002   7.531   6.562   4.049 -1.4273  2.3923 -0.6648
19336SOL    HW260003   7.651   6.588   4.137  0.0299 -0.5200 -1.6680
19337SOL     OW60004   1.328   0.386   3.332  0.0079 -0.1176 -0.0518
19337SOL    HW160005   1.375   0.345   3.259  0.8364  0.6330  0.0379
19337SOL    HW260006   1.256   0.326   3.351  0.4396 -0.8842 -0.7524
19338SOL     OW60007   7.601   8.100   2.783  0.9326 -0.1045 -0.1342
19338SOL    HW160008   7.629   8.074   2.870 -0.7895 -1.8003 -0.0075
19338SOL    HW260009   7.630   8.030   2.726  0.4328  0.0635 -0.6119
19339SOL     OW60010   6.019   3.406   2.736 -0.4192 -0.6538 -0.2016
19339SOL    HW160011   5.973   3.424   2.818 -0.1134 -1.8654  0.2668
19339SOL    HW260012   6.107   3.380   2.764  0.1594  0.3825 -1.0143
19340SOL     OW60013   7.982   4.714   8.121  0.7767  0.7838 -0.4890
19340SOL    HW160014   8.001   4.769   8.197  1.0972 -0.9428  0.7237
19340SOL    HW260015   8.069   4.696   8.083  0.8809 -0.5563  0.3441
19341SOL     OW60016   1.158   0.105   1.005  0.0029 -0.3985  0.5580
19341SOL    HW160017   1.077   0.074   0.963  0.2105 -0.2757  0.0672
19341SOL    HW260018   1.190   0.174   0.948  0.2724 -0.2023  0.9412
19342SOL     OW60019   2.799   1.343   6.442  0.3821 -0.6394 -0.1326
19342SOL    HW160020   2.884   1.388   6.444 -0.0307  0.2476 -1.2109
19342SOL    HW260021   2.812   1.271   6.380  0.6119 -1.1276  0.4637
19343SOL     OW60022   3.080   5.863   6.015 -0.2227 -0.6006  0.9038
19343SOL    HW160023   3.049   5.950   5.988  0.5585 -0.8559 -1.0140
19343SOL    HW260024   3.012   5.803   5.982  0.9449 -0.9530 -1.0555
19344SOL     OW60025   7.958   2.725   7.955  0.2697  0.1687 -0.6967
19344SOL    HW160026   7.984   2.699   7.867 -1.6997 -0.5917 -1.1035
19344SOL    HW260027   7.946   2.643   8.003  2.4870  0.5796  0.7051
19345SOL     OW60028   0.195   2.978   5.822 -0.2777  0.5553 -0.0093
19345SOL    HW160029   0.269   2.920   5.841 -1.2859 -0.4123  1.0702
19345SOL    HW260030   0.152   2.990   5.907 -2.3270 -0.2455 -0.8936
19346SOL     OW60031   2.395   3.362   7.129 -0.1502  0.2308 -0.5581
19346SOL    HW160032   2.340   3.352   7.207 -0.5635  0.7293 -0.7788
19346SOL    HW260033   2.473   3.311   7.148  0.0172  0.8340  0.4381
19347SOL     OW60034   6.160   2.458   6.418 -0.3888  0.2908 -0.2632
19347SOL    HW160035   6.184   2.411   6.497 -0.8187  1.8780  0.8680
19347SOL    HW260036   6.206   2.412   6.348 -0.4545 -1.5104  0.8008
19348SOL     OW60037   4.748   5.808   8.008 -0.4162 -0.5863 -0.1513
19348SOL    HW160038   4.706   5.849   7.933  2.3429 -1.9378 -2.5963
19348SOL    HW260039   4.831   5.854   8.018 -0.7973 -0.2721  2.3364
19349SOL     OW60040   8.865   7.195   4.945 -0.7713  0.1645 -0.0573
19349SOL    HW160041   8.770   7.185   4.942 -1.0156  0.8282  2.6165
19349SOL    HW260042   8.897   7.109   4.974 -0.4090 -0.3263 -1.7702
19350SOL     OW60043   4.962   2.198   6.951 -0.5099 -0.2080 -0.2970
19350SOL    HW160044   5.015   2.275   6.974  0.0411 -0.8307  0.5604
19350SOL    HW260045   5.013   2.153   6.885  0.2061 -0.9707  0.7471
19351SOL     OW60046   4.274   2.311   1.299 -0.0072  0.0836 -0.0130
19351SOL    HW160047   4.265   2.223   1.336  0.4548  1.0235  2.5061
19351SOL    HW260048   4.353   2.307   1.245  1.1557 -0.5771  1.6778
19352SOL     OW60049   3.870   0.571   2.429 -0.2720  0.9109  0.2053
19352SOL    HW160050   3.806   0.522   2.481  0.1454  0.4313  0.2846
19352SOL    HW260051   3.848   0.663   2.443  0.3610  0.8384  1.9485
19353SOL     OW60052   8.601   4.276   7.733  0.5067 -0.7750  0.3382
19353SOL    HW160053   8.617   4.263   7.826  0.2049 -1.6649  0.2740
19353SOL    HW260054   8.587   4.370   7.724  0.8308 -0.6443  1.1412
19354SOL     OW60055   0.607   8.608   8.669  0.1425 -0.0335 -0.5221
19354SOL    HW160056   0.582   8.523   8.634  1.0784 -0.2387 -0.7324
19354SOL    HW260057   0.584   8.604   8.762 -3.8112  1.0735 -1.2688
19355SOL     OW60058   5.622   0.353   3.312  0.1563 -0.1215 -0.0672
19355SOL    HW160059   5.626   0.379   3.220 -0.7600  2.1101  0.4756
19355SOL    HW260060   5.562   0.279   3.313  1.7786 -1.5689 -1.4793
19356SOL     OW60061   6.341   4.845   2.079 -0.3061 -0.5035 -0.2600
19356SOL    HW160062   6.359   4.877   2.167  0.7743  1.9984 -1.3220
19356SOL    HW260063   6.426   4.845   2.035 -1.0918  0.1313 -1.8501
19357SOL     OW60064   3.578   7.989   4.326 -0.2428 -0.1125 -0.1783
19357SOL    HW160065   3.543   8.024   4.244 -1.1902 -0.8216 -0.0945
19357SOL    HW260066   3.604   8.066   4.376  0.7590  0.3166 -1.3099
19358SOL     OW60067   2.967   2.949   0.966  0.3900 -0.2501 -0.1237
19358SOL    HW160068   2.894   2.926   1.023  0.4273  1.1882  0.5418
19358SOL    HW260069   2.934   2.935   0.877 -0.3024 -0.6908  0.1972
19359SOL     OW60070   8.807   6.674   4.651 -0.0231  0.3739 -0.3710
19359SOL    HW160071   8.785   6.594   4.604  0.2571  0.0304  0.0775
19359SOL    HW260072   8.799   6.743   4.585  1.0323 -0.1746 -1.1031
19360SOL     OW60073   1.275   4.597   7.810 -0.6463 -0.3803 -0.0137
19360SOL    HW160074   1.281   4.687   7.778  1.1796 -0.8346 -1.0761
19360SOL    HW260075   1.221   4.551   7.746  0.3865 -0.5635 -0.7706
19361SOL     OW60076   5.893   8.199   3.579 -0.1457  0.1330 -0.7112
19361SOL    HW160077   5.946   8.273   3.609 -1.8498  1.1462 -0.0663
19361SOL    HW260078   5.813   8.239   3.545 -0.9890 -1.3999 -0.6133
19362SOL     OW60079   8.614   8.285   8.087  0.2889 -0.3886  0.4314
19362SOL    HW160080   8.679   8.289   8.156  1.1573 -0.9974 -0.3251
19362SOL    HW260081   8.605   8.191   8.068 -0.1505 -0.2513 -0.0747
19363SOL     OW60082   6.623   4.906   1.938  0.5477  0.3392  0.2294
19363SOL    HW160083   6.697   4.867   1.984  0.2195  0.7964  1.1642
19363SOL    HW260084   6.663   4.971   1.880  0.8641  0.9155  1.0670
19364SOL     OW60085   4.965   5.205   8.191  0.0409 -0.0564  0.1621
19364SOL    HW160086   4.914   5.284   8.172  1.3562  0.5290 -1.1384
19364SOL    HW260087   4.931   5.140   8.129 -0.6459 -0.3594  0.8405
19365SOL     OW60088   3.370   8.209   5.213 -0.4509 -0.5706 -0.0799
19365SOL    HW160089   3.438   8.276   5.223 -0.2122 -0.5894 -1.4230
19365SOL    HW260090   3.316   8.219   5.291  0.3769  0.2778  0.4102
19366SOL     OW60091   7.944   8.462   8.820  0.6514  0.4752  0.1255
19366SOL    HW160092   7.862   8.472   8.770  0.0726  0.2182  0.9989
19366SOL    HW260093   8.012   8.452   8.753 -0.3541 -2.0315 -0.6322
19367SOL     OW60094   0.889   2.212   0.396  0.1447 -0.4392  0.3165
19367SOL    HW160095   0.955   2.238   0.332 -0.6813  1.0033  0.0256
19367SOL    HW260096   0.906   2.267   0.472 -0.4587 -0.3323  0.3832
19368SOL     OW60097   0.641   1.437   6.576 -0.6618 -0.4091  0.1361
19368SOL    HW160098   0.662   1.358   6.627 -1.9800 -0.4782  0.6137
19368SOL    HW260099   0.721   1.489   6.579 -0.4355 -0.7905  1.6034
19369SOL     OW60100   2.299   6.879   0.606 -0.4570  0.3738  0.4408
19369SOL    HW160101   2.328   6.966   0.581 -1.4635  0.1648 -1.7059
19369SOL    HW260102   2.369   6.821   0.576 -0.2681  0.3612  0.9059
19370SOL     OW60103   1.457   2.394   5.120 -0.0926  0.4890 -0.3093
19370SOL    HW160104   1.391   2.335   5.083 -0.5961  0.3889  0.7186
19370SOL    HW260105   1.440   2.393   5.214 -0.2001  2.3921 -0.2771
19371SOL     OW60106   4.584   1.115   0.891  0.1772  0.0395 -0.0922
19371SOL    HW160107   4.498   1.153   0.912  0.0562  0.1310 -0.7335
19371SOL    HW260108   4.588   1.118   0.795  1.0420  0.3429 -0.0483
19372SOL     OW60109   8.569   6.367   6.774  0.2871 -0.6159  0.0895
19372SOL    HW160110   8.531   6.363   6.861  0.5558 -0.9667  0.1939
19372SOL    HW260111   8.559   6.278   6.739  0.2664 -0.5006 -0.1966
19373SOL     OW60112   0.293   6.937   3.675 -0.0578 -1.0083  0.1994
19373SOL    HW160113   0.298   6.986   3.757  1.0143 -0.5944 -0.1007
19373SOL    HW260114   0.356   6.866   3.685  0.4981 -0.6134 -0.4880
19374SOL     OW60115   2.569   8.855   6.017  0.0268 -0.0950  0.4505
19374SOL    HW160116   2.500   8.824   6.076  0.7389  0.5941  1.6843
19374SOL    HW260117   2.617   8.775   5.992 -0.2747 -0.3927  0.8054
19375SOL     OW60118   8.171   3.943   1.426 -0.1174  0.1764 -0.2073
19375SOL    HW160119   8.206   3.893   1.352 -1.1453 -0.3747 -0.3420
19375SOL    HW260120   8.188   3.888   1.502  0.6320  0.5890 -0.0650
19376SOL     OW60121   4.528   7.098   1.556  0.1590 -0.1394  0.2774
19376SOL    HW160122   4.468   7.023   1.548  1.7231 -1.4405  0.2351
19376SOL    HW260123   4.563   7.092   1.644 -0.2465  1.0108  0.5335
19377SOL     OW60124   6.383   2.458   8.136 -0.4605  0.0411 -0.1041
19377SOL    HW160125   6.447   2.455   8.065 -2.0380  0.5537 -1.6053
19377SOL    HW260126   6.371   2.366   8.161 -0.5399 -0.2447 -1.1401
19378SOL     OW60127   1.894   1.298   1.807  0.2364 -0.1800  0.0782
19378SOL    HW160128   1.921   1.278   1.896 -0.1746  1.1827  0.5400
19378SOL    HW260129   1.938   1.381   1.787 -2.0618  1.1503  0.1792
19379SOL     OW60130   8.240   3.339   2.434 -0.0357 -0.5282 -0.1689
19379SOL    HW160131   8.248   3.292   2.350  1.0420 -0.2532 -0.2282
19379SOL    HW260132   8.195   3.278   2.491  2.0224 -1.9987 -0.0083
19380SOL     OW60133   3.594   7.781   3.553 -0.2074 -0.3235  0.2572
19380SOL    HW160134   3.644   7.836   3.613  3.2871 -1.2320 -1.5932
19380SOL    HW260135   3.581   7.835   3.475  0.3125 -0.9695 -0.2964
19381SOL     OW60136   8.583   4.685   2.881  0.1088  0.0879  0.3404
19381SOL    HW160137   8.488   4.677   2.890  0.1520  1.6304  3.1279
19381SOL    HW260138   8.619   4.627   2.948  1.0874  0.8562  0.5014
19382SOL     OW60139   0.168   5.415   2.195 -0.9081 -0.4032  0.2114
19382SOL    HW160140   0.232   5.363   2.243 -0.3542  0.0808  0.0019
19382SOL    HW260141   0.094   5.356   2.181 -0.1050 -1.2838 -0.4216
19383SOL     OW60142   1.682   8.026   5.469 -0.1800 -0.4771 -0.8302
19383SOL    HW160143   1.626   8.081   5.414 -0.2717  1.3186  0.9424
19383SOL    HW260144   1.638   7.940   5.470 -3.5369  1.0552  1.1802
19384SOL     OW60145   7.290   3.579   5.152  0.3566 -0.4871  0.1379
19384SOL    HW160146   7.302   3.674   5.160  0.5907 -0.3694 -1.4256
19384SOL    HW260147   7.379   3.545   5.142  0.2750 -0.8989  0.7425
19385SOL     OW60148   4.211   0.529   4.951  0.3726 -0.3742 -0.3996
19385SOL    HW160149   4.206   0.541   5.046 -2.0232  1.1056 -0.6362
19385SOL    HW260150   4.295   0.484   4.937  0.6676 -0.8741  2.4049
19386SOL     OW60151   8.860   3.586   0.519  0.1838 -0.4316  0.0696
19386SOL    HW160152   8.780   3.553   0.479 -1.2054  2.6602  0.0006
19386SOL    HW260153   8.927   3.576   0.452 -0.8390 -0.3695 -0.9813
19387SOL     OW60154   4.923   3.474   6.323 -0.4832 -0.7447 -0.1157
19387SOL    HW160155   4.906   3.383   6.349  1.2257 -0.9796  0.3381
19387SOL    HW260156   5.015   3.474   6.297 -0.2007  1.0236  0.7210
19388SOL     OW60157   4.817   8.864   5.684  0.5744  0.0720 -0.0127
19388SOL    HW160158   4.764   8.894   5.610 -0.3583 -0.7893  0.2709
19388SOL    HW260159   4.906   8.859   5.650  0.3183  0.5989 -0.7953
19389SOL     OW60160   7.237   6.622   7.498  0.4159  0.0703  0.0299
19389SOL    HW160161   7.294   6.641   7.572  3.0508  1.8607 -2.2517
19389SOL    HW260162   7.150   6.647   7.527  1.1660 -0.2483  2.8044
19390SOL     OW60163   4.543   4.565   5.528 -0.2653  0.1460  0.0989
19390SOL    HW160164   4.632   4.573   5.493 -0.2149 -2.8572 -0.7701
19390SOL    HW260165   4.555   4.529   5.615 -0.6068 -1.2683 -0.4144
19391SOL     OW60166   1.885   3.227   1.105  0.3852 -0.0970 -0.3406
19391SOL    HW160167   1.853   3.233   1.015 -0.0393 -1.3580 -0.3039
19391SOL    HW260168   1.980   3.217   1.097  0.6437  2.1236 -0.5201
19392SOL     OW60169   8.042   8.399   6.168  0.3432  0.0852  0.4353
19392SOL    HW160170   7.980   8.370   6.101  0.9635 -0.9147  0.2727
19392SOL    HW260171   8.084   8.477   6.130 -0.9391  0.9006  0.6335
19393SOL     OW60172   5.604   3.166   6.413  0.3632 -0.4942  0.3571
19393SOL    HW160173   5.549   3.095   6.379 -0.0174  0.2939 -0.7147
19393SOL    HW260174   5.545   3.220   6.465  0.3472 -0.2180  0.0555
19394SOL     OW60175   8.764   1.617   4.591  0.0518  0.3309  0.1357
19394SOL    HW160176   8.809   1.545   4.634 -0.1896 -0.2450 -0.5638
19394SOL    HW260177   8.674   1.587   4.580 -0.6093  1.5417  1.6965
19395SOL     OW60178   4.025   0.314   7.556 -0.1582 -0.6806  0.5813
19395SOL    HW160179   4.041   0.220   7.566  0.1656 -0.5511  1.3798
19395SOL    HW260180   3.930   0.322   7.553 -0.2280 -1.3191 -2.6481
19396SOL     OW60181   5.371   0.885   4.081  0.3042  0.0769 -0.2701
19396SOL    HW160182   5.338   0.957   4.029 -0.4169 -0.3022 -0.3604
19396SOL    HW260183   5.433   0.840   4.024 -0.4238 -0.2947 -0.7917
19397SOL     OW60184   4.893   1.901   0.697  0.4552 -0.0630  0.7012
19397SOL    HW160185   4.866   1.809   0.693 -0.0822  0.1153 -0.5156
19397SOL    HW260186   4.988   1.899   0.686  0.4941 -0.4917  1.0990
19398SOL     OW60187   5.854   0.103   7.925  0.1023 -0.1831  0.7192
19398SOL    HW160188   5.822   0.070   7.842 -0.5026 -0.6445  1.1304
19398SOL    HW260189   5.817   0.192   7.932  0.5786  0.0530  0.2632
19399SOL     OW60190   5.420   5.373   4.803 -0.0980 -0.0028 -0.4781
19399SOL    HW160191   5.378   5.444   4.852  2.2193  0.9175  0.3080
19399SOL    HW260192   5.451   5.414   4.722 -0.8740 -0.7383 -1.1834
19400SOL     OW60193   3.323   5.734   1.082 -0.1027  0.6117  0.1059
19400SOL    HW160194   3.231   5.716   1.063  0.5794 -1.1344 -1.8768
19400SOL    HW260195   3.331   5.829   1.076 -1.8295  0.8326  0.7483
19401SOL     OW60196   7.927   3.618   0.870 -0.1980  0.2136  0.3013
19401SOL    HW160197   7.867   3.582   0.935 -2.7180  2.1677 -0.7748
19401SOL    HW260198   7.889   3.592   0.786  0.6293  1.2615 -0.4226
19402SOL     OW60199   0.951   3.449   1.451  0.1852  0.6342 -0.5890
19402SOL    HW160200   0.935   3.378   1.513 -0.2821  1.3535  0.1324
19402SOL    HW260201   1.043   3.472   1.464  0.1819  0.5491 -0.4147
19403SOL     OW60202   1.053   2.853   1.761  0.3648 -0.1959  0.1458
19403SOL    HW160203   1.124   2.916   1.770 -1.7366  2.5187 -0.7234
19403SOL    HW260204   1.042   2.843   1.667 -0.8637  0.0579  0.2442
19404SOL     OW60205   5.842   7.354   2.971 -0.2286 -0.2428 -0.8543
19404SOL    HW160206   5.787   7.431   2.952 -0.1134 -0.2864 -1.3695
19404SOL    HW260207   5.875   7.370   3.059 -0.0905  0.3726 -1.0090
19405SOL     OW60208   2.389   7.885   6.032 -0.2179  0.5076 -0.0082
19405SOL    HW160209   2.478   7.907   6.058  0.6825 -1.7934 -0.8696
19405SOL    HW260210   2.384   7.790   6.041 -2.8796  0.6467  0.7842
19406SOL     OW60211   7.176   3.507   4.283 -0.0496  0.2197 -0.3815
19406SOL    HW160212   7.121   3.567   4.334  1.2398  0.2114  1.1029
19406SOL    HW260213   7.263   3.548   4.284  0.6435 -1.2049 -0.1275
19407SOL     OW60214   2.404   5.081   5.267 -0.1502 -0.1088 -0.2380
19407SOL    HW160215   2.344   5.015   5.232  0.9544 -1.8780  1.0708
19407SOL    HW260216   2.348   5.139   5.319 -1.0363 -0.4431 -0.8022
19408SOL     OW60217   7.297   2.964   3.274 -0.2626  0.6864 -0.2279
19408SOL    HW160218   7.346   3.029   3.324  1.1758 -2.2173  2.4768
19408SOL    HW260219   7.260   2.906   3.340 -2.7887 -0.4165 -2.4498
19409SOL     OW60220   1.027   6.804   5.852 -0.6015 -0.4988  0.2085
19409SOL    HW160221   1.008   6.878   5.910  0.7789  0.2877 -0.2765
19409SOL    HW260222   1.077   6.743   5.906  2.9155  1.3627 -0.6512
19410SOL     OW60223   4.570   1.596   5.132  0.8593  0.0144 -0.1704
19410SOL    HW160224   4.502   1.539   5.168  0.9721 -0.1928 -0.2792
19410SOL    HW260225   4.623   1.538   5.077  1.5449  0.0093  0.4674
19411SOL     OW60226   5.727   2.882   1.819  0.6454  0.3160  0.0042
19411SOL    HW160227   5.696   2.807   1.769  0.4654  1.6813 -2.0534
19411SOL    HW260228   5.819   2.862   1.838  0.2444 -0.9895  0.7097
19412SOL     OW60229   7.687   8.884   1.569 -0.0091  0.1860  0.3277
19412SOL    HW160230   7.745   8.938   1.623 -0.6159  0.7792  0.4019
19412SOL    HW260231   7.719   8.794   1.582 -1.1462  0.0648  3.0466
19413SOL     OW60232   6.272   8.327   7.551  0.5849  0.1456  0.3781
19413SOL    HW160233   6.358   8.342   7.590  1.0254  2.4988 -1.2920
19413SOL    HW260234   6.217   8.395   7.588  0.6840  1.6039 -1.9247
19414SOL     OW60235   7.032   2.079   7.619 -0.3445 -0.1593 -0.2926
19414SOL    HW160236   7.013   2.095   7.527  1.6975 -0.7697 -0.8613
19414SOL    HW260237   7.047   2.166   7.656 -0.3189  0.0254 -0.7370
19415SOL     OW60238   5.638   1.744   3.127  0.2510  0.6755 -0.3430
19415SOL    HW160239   5.643   1.658   3.168  2.4248  0.8065 -0.2046
19415SOL    HW260240   5.577   1.793   3.182  0.1041 -0.3396  0.4387
19416SOL     OW60241   3.401   6.805   5.998  0.0293  0.2154 -0.6566
19416SOL    HW160242   3.418   6.711   6.003  0.0976  0.2320 -0.5780
19416SOL    HW260243   3.401   6.825   5.904  3.4672  0.7538 -0.6639
19417SOL     OW60244   3.621   5.258   1.800 -0.2292  0.6261  0.5569
19417SOL    HW160245   3.614   5.213   1.716  1.7646 -0.4338  0.8960
19417SOL    HW260246   3.668   5.197   1.857 -1.3205  1.4036  2.4048
19418SOL     OW60247   1.856   3.072   5.768  0.0050  0.3913 -0.3425
19418SOL    HW160248   1.925   3.028   5.818 -0.0155  0.0151 -0.6454
19418SOL    HW260249   1.891   3.079   5.680 -0.2566  0.4045 -0.4455
19419SOL     OW60250   6.422   1.766   2.959 -0.1029 -0.5564 -0.5581
19419SOL    HW160251   6.468   1.685   2.979 -1.4076 -1.4405 -0.9941
19419SOL    HW260252   6.484   1.835   2.981  1.5731 -1.6874 -1.5584
19420SOL     OW60253   6.643   6.597   5.336 -0.0117  0.3686 -0.2662
19420SOL    HW160254   6.686   6.558   5.259 -0.7174  0.1990 -0.5804
19420SOL    HW260255   6.634   6.690   5.314  1.0703  0.6064  0.2106
19421SOL     OW60256   2.218   7.542   0.809 -0.4978 -0.3708  0.4264
19421SOL    HW160257   2.130   7.519   0.838 -0.9302  0.7526  0.0651
19421SOL    HW260258   2.204   7.605   0.738  0.5384 -2.1470 -1.4566
19422SOL     OW60259   4.722   7.552   6.715 -0.8141 -0.0658 -0.0245
19422SOL    HW160260   4.735   7.465   6.752  0.2215  0.3750  0.6795
19422SOL    HW260261   4.630   7.553   6.688 -1.0842 -1.0507  0.8091
19423SOL     OW60262   2.669   0.689   7.210 -0.3179 -0.1110  0.4233
19423SOL    HW160263   2.706   0.744   7.141 -0.8534 -0.9747 -0.5706
19423SOL    HW260264   2.604   0.744   7.253 -0.6800  0.1239 -0.4052
19424SOL     OW60265   1.188   0.523   2.385  0.5218 -0.0844 -0.0016
19424SOL    HW160266   1.159   0.596   2.330  0.5335  2.0602  2.6363
19424SOL    HW260267   1.109   0.491   2.427  0.7857 -0.3613  0.2886
19425SOL     OW60268   1.695   4.802   6.997 -0.1970  0.3165 -0.4551
19425SOL    HW160269   1.623   4.855   7.032 -0.6878 -2.1230  2.7185
19425SOL    HW260270   1.653   4.732   6.948 -0.2154 -1.3968  1.8084
19426SOL     OW60271   2.032   8.874   4.801  0.4517  0.7020 -0.8633
19426SOL    HW160272   1.981   8.799   4.832  2.3321 -0.4617 -0.4081
19426SOL    HW260273   1.972   8.948   4.806 -1.0499 -0.5198  0.0242
19427SOL     OW60274   0.109   4.382   7.939  0.7420  0.3746  0.7355
19427SOL    HW160275   0.069   4.343   7.861  1.3471  2.9235 -0.9524
19427SOL    HW260276   0.195   4.411   7.910  0.6161  2.2467  2.0745
19428SOL     OW60277   4.137   6.065   5.767  0.0650  0.6214  0.2218
19428SOL    HW160278   4.148   6.112   5.684  1.7701  0.2380  0.1957
19428SOL    HW260279   4.143   6.133   5.834 -1.3273  0.9345  0.0697
19429SOL     OW60280   8.551   5.760   8.416  0.5181 -0.1396 -0.0624
19429SOL    HW160281   8.504   5.719   8.488 -0.9809 -3.2400 -2.5861
19429SOL    HW260282   8.637   5.718   8.415  0.5322 -0.1121 -0.1128
19430SOL     OW60283   4.227   0.052   6.597 -0.1983 -0.1791 -0.5492
19430SOL    HW160284   4.305   0.059   6.651 -0.7849 -1.7079  0.5879
19430SOL    HW260285   4.168  -0.004   6.648 -1.8059  0.4676 -1.6279
19431SOL     OW60286   2.351   4.101   4.350  0.3661 -0.5297  0.3540
19431SOL    HW160287   2.373   4.117   4.442 -0.8025  0.5139  0.4836
19431SOL    HW260288   2.271   4.048   4.353  0.4784 -0.7278 -0.0657
19432SOL     OW60289   6.735   4.616   0.557  0.1060 -0.0197  0.2884
19432SOL    HW160290   6.822   4.577   0.562 -0.4248 -1.3701 -0.5046
19432SOL    HW260291   6.678   4.554   0.603 -0.7676 -0.2728 -1.0693
19433SOL     OW60292   8.164   2.748   4.573  0.3895  0.5071  0.0484
19433SOL    HW160293   8.200   2.767   4.659  1.9064  2.4639 -0.9365
19433SOL    HW260294   8.218   2.675   4.540 -1.0563 -1.1643  1.1931
19434SOL     OW60295   2.720   0.718   3.799  0.3019  0.2302  0.5126
19434SOL    HW160296   2.641   0.665   3.809 -0.0686  0.6004 -0.3418
19434SOL    HW260297   2.791   0.660   3.826 -0.0932 -0.7140 -0.3705
19435SOL     OW60298   5.502   3.177   7.891 -0.3722  0.1199 -0.2728
19435SOL    HW160299   5.468   3.123   7.820  2.4050  0.7192 -2.2027
19435SOL    HW260300   5.498   3.266   7.858  1.7548  0.3263 -0.0874
19436SOL     OW60301   0.488   2.618   4.997 -0.0337 -0.3758  0.0844
19436SOL    HW160302   0.494   2.553   4.928 -0.9308  0.9099 -1.2674
19436SOL    HW260303   0.578   2.651   5.006 -0.3781  2.0687 -3.2405
19437SOL     OW60304   6.397   4.782   0.384  0.2814  0.7567 -0.3099
19437SOL    HW160305   6.471   4.727   0.360  0.2409  0.8622 -0.6784
19437SOL    HW260306   6.332   4.721   0.418  0.0078  0.4990 -1.2667
19438SOL     OW60307   2.282   8.248   4.225  0.7279 -0.2189 -0.6004
19438SOL    HW160308   2.313   8.315   4.165  2.4792 -0.8594 -0.4494
19438SOL    HW260309   2.358   8.192   4.241  0.3048 -0.1434  2.1494
19439SOL     OW60310   4.915   6.786   8.150 -0.4693  0.6906 -0.4321
19439SOL    HW160311   4.969   6.712   8.122  1.1956  1.3699  0.8777
19439SOL    HW260312   4.831   6.771   8.105  0.4091 -0.9723 -1.6639
19440SOL     OW60313   1.323   3.284   5.034 -0.0033 -0.4290 -0.1611
19440SOL    HW160314   1.391   3.219   5.018  1.0542  0.6109  0.0012
19440SOL    HW260315   1.330   3.304   5.127  0.1191  0.3909 -0.3427
19441SOL     OW60316   6.892   8.855   6.593  0.2944  0.3163 -0.0743
19441SOL    HW160317   6.963   8.913   6.567 -0.9959  1.2557 -1.7432
19441SOL    HW260318   6.905   8.775   6.543  1.3676 -0.3947  1.2826
19442SOL     OW60319   2.577   1.138   7.162  0.1918 -0.2063  0.0333
19442SOL    HW160320   2.600   1.187   7.083 -0.9411 -0.0511 -0.2301
19442SOL    HW260321   2.641   1.165   7.227 -0.9021  2.3916  0.1748
19443SOL     OW60322   2.780   3.370   6.396  0.2362 -0.4843  0.0341
19443SOL    HW160323   2.858   3.315   6.409  1.4962  1.3165  0.5714
19443SOL    HW260324   2.765   3.368   6.302  0.8380 -0.9682 -0.0604
19444SOL     OW60325   0.569   3.336   1.267  0.3680 -0.3118 -0.2804
19444SOL    HW160326   0.616   3.412   1.302  1.3510 -1.2168  0.4595
19444SOL    HW260327   0.501   3.373   1.211 -0.3245  1.1651  1.4494
19445SOL     OW60328   2.572   4.496   1.610 -0.4444  0.6080  0.0143
19445SOL    HW160329   2.560   4.574   1.664 -0.7813  0.8641 -0.4145
19445SOL    HW260330   2.540   4.424   1.664  2.4999  0.3148  1.5558
19446SOL     OW60331   3.714   0.373   5.550 -0.0375  0.3301 -0.1455
19446SOL    HW160332   3.676   0.448   5.505 -0.2802  0.2149 -0.1355
19446SOL    HW260333   3.746   0.408   5.633 -0.9023  0.2699  0.2247
19447SOL     OW60334   1.091   6.950   7.404 -0.2379  0.5520 -0.3271
19447SOL    HW160335   1.000   6.976   7.421 -0.5612 -0.1978 -0.8478
19447SOL    HW260336   1.139   6.980   7.481 -0.8085  1.5134 -0.3236
19448SOL     OW60337   1.717   8.558   3.349 -0.4067  0.1609 -0.3751
19448SOL    HW160338   1.679   8.544   3.262 -2.6789  0.6389  0.4789
19448SOL    HW260339   1.763   8.476   3.367 -2.7890 -1.3473 -0.6759
19449SOL     OW60340   0.982   6.014   6.068 -0.2322 -0.5829 -0.3306
19449SOL    HW160341   0.977   6.011   5.972 -3.4113 -1.1532 -0.2571
19449SOL    HW260342   0.893   5.995   6.097 -0.0745  2.4411  2.7123
19450SOL     OW60343   1.349   1.811   1.636  0.3420  0.8629 -0.1258
19450SOL    HW160344   1.390   1.732   1.601  1.1908  1.9928 -1.7857
19450SOL    HW260345   1.288   1.839   1.568 -1.2040  0.7631  1.1476
19451SOL     OW60346   7.188   0.652   7.208  0.1410 -0.2765  0.7971
19451SOL    HW160347   7.174   0.561   7.182 -1.0262  0.7171 -2.7398
19451SOL    HW260348   7.277   0.672   7.178 -0.2703  0.1859 -0.1741
19452SOL     OW60349   4.699   5.201   2.148  0.2553  0.1883  0.5260
19452SOL    HW160350   4.645   5.130   2.115  1.3880 -0.3904 -0.1668
19452SOL    HW260351   4.639   5.258   2.196 -0.9369 -0.4413 -0.1882
19453SOL     OW60352   1.637   1.281   6.095  0.1522  0.2540 -0.8050
19453SOL    HW160353   1.642   1.307   6.003  0.7952  1.4661 -0.4559
19453SOL    HW260354   1.684   1.198   6.099  0.5331  0.4289 -1.5004
19454SOL     OW60355   5.127   0.201   3.905 -0.1426 -0.1832 -0.7779
19454SOL    HW160356   5.158   0.266   3.841 -0.8999  0.5635 -0.4088
19454SOL    HW260357   5.071   0.142   3.854 -0.7075  0.3816 -0.8229
19455SOL     OW60358   5.294   1.945   4.006  0.1867  0.1492  0.2857
19455SOL    HW160359   5.323   2.014   3.946  1.2268  0.3541  1.0166
19455SOL    HW260360   5.374   1.908   4.042 -0.4121 -0.3188  1.1841
19456SOL     OW60361   4.157   3.324   7.878  0.3015  0.0228 -0.3168
19456SOL    HW160362   4.208   3.311   7.797  2.0087 -1.7515  0.9311
19456SOL    HW260363   4.090   3.256   7.874 -3.8056  3.7096 -3.0328
19457SOL     OW60364   1.612   0.857   8.881 -0.2158 -0.8531  0.1165
19457SOL    HW160365   1.527   0.818   8.902 -0.3970 -0.4682  0.1035
19457SOL    HW260366   1.615   0.857   8.785 -2.0140  2.8618 -0.1412
19458SOL     OW60367   0.099   5.540   1.751 -0.5690 -0.3492  0.9654
19458SOL    HW160368   0.089   5.456   1.795 -0.6220 -0.8862 -0.0491
19458SOL    HW260369   0.054   5.603   1.808 -3.4693 -1.5149  0.1225
19459SOL     OW60370   4.240   1.323   1.501 -0.2857 -0.4933 -0.1010
19459SOL    HW160371   4.151   1.357   1.490 -0.9940 -1.7140  1.5103
19459SOL    HW260372   4.291   1.369   1.434 -1.8919  1.0378 -0.3558
19460SOL     OW60373   4.315   4.668   1.686  0.4200  0.2864  0.1739
19460SOL    HW160374   4.338   4.685   1.594 -0.7896  1.1398  0.0074
19460SOL    HW260375   4.222   4.689   1.691  0.1718 -0.9870  1.3137
19461SOL     OW60376   3.842   6.458   5.795 -0.1659  0.3484 -0.1261
19461SOL    HW160377   3.905   6.397   5.756  0.6978  0.6767  0.7079
19461SOL    HW260378   3.867   6.463   5.887 -0.6407  1.4446 -0.0357
19462SOL     OW60379   7.059   2.584   4.682 -0.7581 -0.1441  0.4117
19462SOL    HW160380   7.097   2.508   4.637 -0.5639 -0.3512  0.9201
19462SOL    HW260381   7.133   2.632   4.717 -0.8637  0.4745 -0.2016
19463SOL     OW60382   0.995   2.420   1.786  0.2426 -0.1871 -0.2022
19463SOL    HW160383   0.950   2.340   1.761  2.0372 -1.2998 -0.0526
19463SOL    HW260384   1.047   2.444   1.708  1.4566 -0.4770  0.4860
19464SOL     OW60385   2.458   4.545   1.345 -0.1007 -0.1899  0.3245
19464SOL    HW160386   2.391   4.549   1.413  0.3550 -0.1850  0.7849
19464SOL    HW260387   2.412   4.513   1.267 -0.1894 -2.4825  1.2288
19465SOL     OW60388   8.415   2.910   0.379 -0.3773  0.0068  0.5681
19465SOL    HW160389   8.386   2.820   0.366 -0.5226 -0.2072  2.1584
19465SOL    HW260390   8.340   2.953   0.421 -0.0593  0.6846  0.4488
19466SOL     OW60391   4.061   6.180   6.051 -0.1169 -0.1111  0.3564
19466SOL    HW160392   4.026   6.127   6.122  0.2057  0.2623  0.7948
19466SOL    HW260393   4.156   6.177   6.062 -0.0141 -0.7902 -0.5938
19467SOL     OW60394   4.557   2.868   0.452 -0.0912 -0.0070  0.1568
19467SOL    HW160395   4.471   2.902   0.428 -0.0584  0.2982  0.4671
19467SOL    HW260396   4.619   2.927   0.409 -0.0344  0.2831  0.6332
19468SOL     OW60397   7.847   8.030   2.097 -0.4209 -0.0361 -0.0809
19468SOL    HW160398   7.875   8.114   2.132 -0.9942 -0.0028  0.3017
19468SOL    HW260399   7.863   7.968   2.168  0.9650 -0.4363 -0.7139
19469SOL     OW60400   6.337   3.330   5.064 -0.6421  0.0044 -0.1189
19469SOL    HW160401   6.295   3.289   4.988 -0.1760 -0.6711 -0.0171
19469SOL    HW260402   6.323   3.267   5.136 -0.7111  0.4437  0.2578
19470SOL     OW60403   5.857   4.182   8.526 -0.0013 -0.5290  0.0422
19470SOL    HW160404   5.943   4.146   8.549 -0.5212 -0.7607  1.7607
19470SOL    HW260405   5.848   4.165   8.432  2.1546  0.2130 -0.3617
19471SOL     OW60406   6.501   6.176   2.859  0.4125  0.2729  0.5255
19471SOL    HW160407   6.424   6.203   2.909  0.1029 -0.0053  0.2150
19471SOL    HW260408   6.465   6.145   2.775  0.8446 -0.0238  0.4432
19472SOL     OW60409   4.923   5.589   8.066  0.0874 -0.1258 -0.1531
19472SOL    HW160410   4.860   5.577   8.138 -1.3054 -1.2865 -1.5063
19472SOL    HW260411   4.920   5.683   8.048  0.4148  0.1781  1.2279
19473SOL     OW60412   1.419   4.529   4.058 -0.2487  0.8512  0.0217
19473SOL    HW160413   1.358   4.527   3.985  0.1653 -0.8113 -0.3208
19473SOL    HW260414   1.375   4.478   4.127  0.2988  0.5436  0.1464
19474SOL     OW60415   5.512   7.266   2.486 -0.4076 -0.6166  0.3374
19474SOL    HW160416   5.419   7.268   2.464 -0.5754  0.4468  1.0714
19474SOL    HW260417   5.549   7.342   2.443  0.0123 -0.7101  0.5280
19475SOL     OW60418   8.178   2.522   3.090 -0.2358 -0.5104  0.1096
19475SOL    HW160419   8.093   2.567   3.086 -0.0991 -0.3681 -2.6358
19475SOL    HW260420   8.203   2.528   3.183 -1.6699  2.3541  0.4321
19476SOL     OW60421   7.534   4.989   3.156 -0.2765  1.0023  0.2451
19476SOL    HW160422   7.484   4.923   3.110 -1.6852  2.1296  0.0805
19476SOL    HW260423   7.493   5.072   3.132  1.4649  1.9688  0.3877
19477SOL     OW60424   1.649   7.964   5.025 -0.1222  0.4420 -0.2746
19477SOL    HW160425   1.675   7.887   5.076 -0.5929  0.6984  0.3639
19477SOL    HW260426   1.558   7.946   5.001  0.2622  0.0670 -1.5221
19478SOL     OW60427   1.032   2.432   0.065 -0.3100 -0.0301  0.0463
19478SOL    HW160428   1.036   2.456  -0.028 -1.3106 -1.1831 -0.3092
19478SOL    HW260429   0.938   2.431   0.085 -0.1195 -0.3306  0.9368
19479SOL     OW60430   3.293   6.745   2.188 -0.4993  0.0110  0.2876
19479SOL    HW160431   3.286   6.653   2.163 -1.0149 -0.0825  0.7521
19479SOL    HW260432   3.290   6.792   2.105  0.7889 -0.4279 -0.0322
19480SOL     OW60433   2.169   8.610   6.568 -0.4895 -0.2468 -0.1495
19480SOL    HW160434   2.133   8.694   6.596 -0.3228  0.0396 -0.7723
19480SOL    HW260435   2.193   8.565   6.649  1.3859  1.1698  0.1416
19481SOL     OW60436   6.053   4.664   8.847  0.2763 -0.1229  0.4246
19481SOL    HW160437   6.058   4.661   8.752  3.4319 -3.0245  0.4994
19481SOL    HW260438   6.113   4.734   8.873 -1.6774  1.6778  0.3866
19482SOL     OW60439   5.946   3.236   2.536  0.1647 -0.0253  0.0234
19482SOL    HW160440   6.002   3.159   2.533 -0.0432 -0.1819  0.0727
19482SOL    HW260441   5.986   3.292   2.602 -0.6332 -0.8537  1.2700
19483SOL     OW60442   7.674   3.109   6.336 -0.3772 -0.2199  0.2908
19483SOL    HW160443   7.682   3.071   6.249 -0.0338 -0.1193  0.2776
19483SOL    HW260444   7.669   3.203   6.321  0.8537 -0.1162  0.4441
19484SOL     OW60445   3.879   3.651   4.514 -0.0445  0.4967 -0.3804
19484SOL    HW160446   3.855   3.611   4.597 -1.1016 -0.4076 -1.0853
19484SOL    HW260447   3.973   3.635   4.505  0.1375  0.8893  0.7747
19485SOL     OW60448   5.562   5.776   2.880  0.0557  0.9193 -0.5026
19485SOL    HW160449   5.511   5.698   2.858 -0.3535  1.0816 -0.1352
19485SOL    HW260450   5.578   5.819   2.797  0.4710  0.3309 -0.7389
19486SOL     OW60451   8.498   1.254   2.811  0.2164 -0.4966 -0.2227
19486SOL    HW160452   8.424   1.236   2.869 -0.0615  0.0966 -0.3748
19486SOL    HW260453   8.560   1.302   2.866  0.1802 -0.3880 -0.2765
19487SOL     OW60454   3.991   8.437   2.460  0.4052  0.4443  0.7096
19487SOL    HW160455   4.056   8.505   2.441  0.4203  0.0410 -0.8223
19487SOL    HW260456   4.004   8.416   2.553  1.8741  0.9944  0.6510
19488SOL     OW60457   6.352   7.582   8.454 -0.2916 -0.0581 -0.1438
19488SOL    HW160458   6.341   7.514   8.388  0.4982  1.1243 -1.5529
19488SOL    HW260459   6.418   7.546   8.513  0.2663 -0.4544 -0.9794
19489SOL     OW60460   1.075   4.450   1.730 -0.3427 -0.1194  0.5233
19489SOL    HW160461   1.165   4.462   1.760 -0.5549  2.3541  0.3687
19489SOL    HW260462   1.083   4.444   1.635 -0.3250 -0.2742  0.5335
19490SOL     OW60463   6.088   3.186   7.374  1.3381  0.1597 -0.1873
19490SOL    HW160464   6.163   3.243   7.357  0.3525  1.4363 -0.3961
19490SOL    HW260465   6.060   3.207   7.463  0.4348  0.6565 -0.5722
19491SOL     OW60466   1.396   4.371   6.056  0.0342  0.3137  0.5454
19491SOL    HW160467   1.334   4.427   6.008  1.2920  1.7460  0.4940
19491SOL    HW260468   1.412   4.297   5.997 -2.2459 -0.5532  0.9298
19492SOL     OW60469   0.969   8.152   6.926  0.1044 -0.2239  0.0622
19492SOL    HW160470   0.975   8.059   6.904  2.8426  0.2597 -1.8682
19492SOL    HW260471   0.898   8.185   6.871 -0.4928 -1.0814  0.3135
19493SOL     OW60472   4.585   6.606   1.448 -0.1183  0.3458 -0.5190
19493SOL    HW160473   4.579   6.621   1.542  0.4025 -0.2721 -0.3711
19493SOL    HW260474   4.643   6.675   1.416  2.1037 -1.0768  0.1137
19494SOL     OW60475   3.467   1.186   3.668  0.1988  0.2984  0.4227
19494SOL    HW160476   3.431   1.273   3.653  1.3694  0.5429 -1.2733
19494SOL    HW260477   3.528   1.197   3.741 -0.9861  0.4767  1.4223
19495SOL     OW60478   0.335   5.693   2.996  0.1047  0.6431  0.6929
19495SOL    HW160479   0.283   5.764   3.035 -0.4927 -0.0607  1.2002
19495SOL    HW260480   0.419   5.698   3.041 -1.0572 -1.1217  3.2935
19496SOL     OW60481   6.359   6.134   4.872  0.0991  0.0820  0.3488
19496SOL    HW160482   6.372   6.057   4.817  0.0533  1.1775 -1.2591
19496SOL    HW260483   6.434   6.133   4.931 -0.1528 -1.4392  0.6848
19497SOL     OW60484   2.258   4.215   6.904 -0.0269 -0.0082  0.2947
19497SOL    HW160485   2.288   4.252   6.987 -1.2399  0.8113  0.4014
19497SOL    HW260486   2.247   4.121   6.922  1.4592 -0.1676  0.5123
19498SOL     OW60487   3.868   4.651   3.085  0.5731 -0.3667  0.6568
19498SOL    HW160488   3.837   4.619   3.000 -0.3486 -0.2001  0.9219
19498SOL    HW260489   3.928   4.583   3.116  1.3612 -0.1695 -0.3683
19499SOL     OW60490   8.526   7.625   0.140  0.5578 -0.0733 -0.8212
19499SOL    HW160491   8.456   7.561   0.125 -1.0451  1.8634 -2.1608
19499SOL    HW260492   8.515   7.689   0.069  1.6154  2.0491  0.8281
19500SOL     OW60493   6.527   8.696   3.194  0.1583 -0.0688  0.1035
19500SOL    HW160494   6.551   8.667   3.282 -1.1668 -0.4707  0.3552
19500SOL    HW260495   6.610   8.701   3.147  0.7880 -0.8264  1.0905
19501SOL     OW60496   5.318   8.176   3.727 -0.2217 -0.1877  0.5712
19501SOL    HW160497   5.325   8.147   3.636  0.9851  0.8477  0.3055
19501SOL    HW260498   5.309   8.272   3.720  0.8250 -0.0061  1.5697
19502SOL     OW60499   7.165   5.666   0.828  0.3083 -0.5838  0.0259
19502SOL    HW160500   7.161   5.651   0.733  0.4698 -3.8496  0.4292
19502SOL    HW260501   7.099   5.733   0.844  0.1432 -0.0660 -2.3562
19503SOL     OW60502   7.138   0.506   5.937  0.3720  1.0805  0.6206
19503SOL    HW160503   7.159   0.517   6.030  0.0610  1.2826  0.6679
19503SOL    HW260504   7.151   0.593   5.899  1.2323  0.8341  0.3209
19504SOL     OW60505   8.321   7.449   6.029  0.1887  0.3226  0.3165
19504SOL    HW160506   8.317   7.374   5.970 -1.8489  0.1671  0.5894
19504SOL    HW260507   8.414   7.464   6.043  0.6423 -1.6899 -0.3323
19505SOL     OW60508   4.932   4.153   6.193  0.8452  0.0545 -0.0017
19505SOL    HW160509   4.851   4.161   6.243  1.0845  1.8804  0.1458
19505SOL    HW260510   4.927   4.223   6.128  2.5431  0.5647  0.3773
19506SOL     OW60511   5.899   6.884   0.023  0.1190 -0.1661  0.4740
19506SOL    HW160512   5.949   6.948   0.074  0.1586  0.2707 -0.0999
19506SOL    HW260513   5.837   6.937  -0.027 -0.2224 -0.6242  0.4073
19507SOL     OW60514   5.715   1.170   5.432 -0.4308  0.5655 -0.0982
19507SOL    HW160515   5.749   1.250   5.391 -2.3727  0.2332 -2.6302
19507SOL    HW260516   5.777   1.102   5.405  2.2909  1.2692  3.5751
19508SOL     OW60517   3.187   4.743   6.739 -0.1020 -0.0381 -0.2955
19508SOL    HW160518   3.280   4.742   6.719 -0.1562 -1.3400 -0.5648
19508SOL    HW260519   3.146   4.785   6.663  0.3865  2.2585  0.6134
19509SOL     OW60520   6.322   1.533   3.176  0.1136 -0.9386 -0.3672
19509SOL    HW160521   6.254   1.600   3.169  1.6527  0.6370 -0.8460
19509SOL    HW260522   6.297   1.467   3.111 -1.3130 -0.7381 -0.0536
19510SOL     OW60523   6.099   3.473   8.671  0.1138 -0.0175 -0.3076
19510SOL    HW160524   6.079   3.416   8.596  0.8085  0.6512 -1.0169
19510SOL    HW260525   6.021   3.527   8.682 -0.5530 -1.0759  0.3675
19511SOL     OW60526   0.343   5.522   0.520  0.3629 -0.2340  0.2078
19511SOL    HW160527   0.293   5.588   0.567  1.8990  0.2963  1.1883
19511SOL    HW260528   0.409   5.493   0.583  2.1572  0.1087 -1.4018
19512SOL     OW60529   1.220   6.291   0.355 -0.2740 -0.5278 -0.2940
19512SOL    HW160530   1.295   6.249   0.313 -0.3087  0.8771 -1.8406
19512SOL    HW260531   1.179   6.343   0.286 -0.1648  2.1443  1.4903
19513SOL     OW60532   6.750   4.750   2.528  0.1951 -0.1940  0.8365
19513SOL    HW160533   6.796   4.678   2.571  0.2355 -1.4441 -1.1597
19513SOL    HW260534   6.805   4.772   2.453  0.1481  1.9263  1.3438
19514SOL     OW60535   7.830   3.944   3.446 -0.0879  0.1548  0.0632
19514SOL    HW160536   7.775   3.892   3.505  0.5066 -2.5608 -1.6232
19514SOL    HW260537   7.836   4.029   3.489 -3.5328 -0.1685  1.5398
19515SOL     OW60538   0.351   6.264   3.654 -0.3997  0.6203 -0.2823
19515SOL    HW160539   0.292   6.327   3.613 -0.8225  0.2419 -0.2607
19515SOL    HW260540   0.303   6.233   3.730 -0.5311 -0.3354 -0.7492
19516SOL     OW60541   3.861   2.403   4.155 -0.5341 -0.1756  0.3798
19516SOL    HW160542   3.950   2.386   4.124 -0.5785 -1.3091  0.8441
19516SOL    HW260543   3.805   2.390   4.079 -0.3632 -0.0533  0.2329
19517SOL     OW60544   8.259   5.510   2.468  0.4999  0.4765  0.3952
19517SOL    HW160545   8.349   5.479   2.459  0.1202 -0.3901 -0.5989
19517SOL    HW260546   8.253   5.584   2.408 -0.1233 -1.0376 -1.4908
19518SOL     OW60547   0.907   8.024   6.165 -0.6402  0.1017  0.1084
19518SOL    HW160548   0.817   8.045   6.191 -0.5751  2.1861 -1.1732
19518SOL    HW260549   0.905   8.022   6.070  0.5929 -0.3817  0.0772
19519SOL     OW60550   8.734   7.361   1.456  0.0995  0.3553  0.1859
19519SOL    HW160551   8.747   7.448   1.493 -1.6043  1.1785 -1.0441
19519SOL    HW260552   8.797   7.357   1.384  1.4383 -0.1705  1.3308
19520SOL     OW60553   8.750   2.507   1.985 -0.1055  0.2344  0.2240
19520SOL    HW160554   8.801   2.519   1.905  0.3385 -1.0102  0.3055
19520SOL    HW260555   8.662   2.486   1.954 -0.1368  0.5814  0.0719
19521SOL     OW60556   1.300   2.336   2.251  0.6681 -0.0886  0.5287
19521SOL    HW160557   1.307   2.431   2.258 -0.4011 -0.0013  0.4997
19521SOL    HW260558   1.296   2.305   2.341  1.0193 -0.1072  0.5382
19522SOL     OW60559   8.385   1.778   2.186 -0.0425  0.6570  0.5779
19522SOL    HW160560   8.318   1.798   2.120  0.6407  2.9113  0.4750
19522SOL    HW260561   8.405   1.686   2.174 -2.1114  0.2801 -0.3316
19523SOL     OW60562   2.859   8.680   1.017  0.4586  0.4877 -0.1908
19523SOL    HW160563   2.951   8.707   1.025  0.6509  0.1610 -1.2560
19523SOL    HW260564   2.826   8.728   0.941  0.4329 -1.2024 -1.2964
19524SOL     OW60565   4.056   4.748   3.700  0.0532  0.4714  0.3629
19524SOL    HW160566   3.964   4.726   3.717  0.2326  1.6360  3.2160
19524SOL    HW260567   4.105   4.671   3.730  0.2463  1.8308  3.9632
19525SOL     OW60568   6.757   8.125   3.083 -0.3075 -0.1674  0.1656
19525SOL    HW160569   6.676   8.175   3.080 -1.3052 -1.4602  2.5297
19525SOL    HW260570   6.825   8.189   3.103 -1.1843  0.6005  0.7556
19526SOL     OW60571   5.355   8.200   1.946 -0.1012 -0.1440  0.6849
19526SOL    HW160572   5.414   8.258   1.898 -2.0186  0.8878 -0.5481
19526SOL    HW260573   5.362   8.116   1.901  0.3723 -0.0084  0.5016
19527SOL     OW60574   6.858   7.025   5.284  0.4371  0.3948 -0.0641
19527SOL    HW160575   6.770   7.020   5.248 -0.4089  1.2534  1.7517
19527SOL    HW260576   6.905   6.953   5.241 -1.4423 -0.7922 -0.2757
19528SOL     OW60577   6.379   5.298   0.812 -0.4725 -0.0589 -0.0043
19528SOL    HW160578   6.349   5.380   0.772  0.0340  1.0164  1.6738
19528SOL    HW260579   6.405   5.324   0.901 -0.6213 -2.1276  0.6831
19529SOL     OW60580   0.726   4.957   4.604 -0.2664  0.2417  0.6097
19529SOL    HW160581   0.731   4.983   4.696  2.7511  2.0334  0.0630
19529SOL    HW260582   0.686   5.032   4.560  2.3894  1.4123 -0.0418
19530SOL     OW60583   6.823   2.859   0.138 -0.4110 -0.0038  0.7085
19530SOL    HW160584   6.863   2.943   0.163  0.1690  0.0903 -0.4518
19530SOL    HW260585   6.886   2.820   0.077 -1.5042 -0.4461 -0.1681
19531SOL     OW60586   8.064   7.386   2.835 -0.2761 -0.0737  0.3058
19531SOL    HW160587   8.039   7.304   2.794 -1.1540  0.8061 -0.9662
19531SOL    HW260588   8.009   7.391   2.913 -2.2111  0.5515 -1.0283
19532SOL     OW60589   1.328   4.253   6.771 -0.5442  0.4615  1.0996
19532SOL    HW160590   1.281   4.296   6.700  1.6999  0.9053 -0.2366
19532SOL    HW260591   1.284   4.169   6.782 -0.7665  0.2287 -1.1060
19533SOL     OW60592   5.232   1.873   0.038  0.4617  0.2846 -1.1173
19533SOL    HW160593   5.247   1.843   0.128 -0.9668 -2.2511 -1.6201
19533SOL    HW260594   5.302   1.935   0.022  1.1093  0.3814  1.5442
19534SOL     OW60595   3.781   7.683   3.245 -0.2684  0.8270  0.0234
19534SOL    HW160596   3.694   7.683   3.285 -0.4363  2.1231 -0.2919
19534SOL    HW260597   3.764   7.700   3.152  0.4004  2.5192  0.1866
19535SOL     OW60598   1.061   2.856   6.382 -0.4268  0.4550 -0.6119
19535SOL    HW160599   1.117   2.888   6.311 -1.0459  1.5105 -0.6352
19535SOL    HW260600   0.997   2.800   6.338 -0.9783  1.3260 -0.9467
19536SOL     OW60601   5.808   0.525   3.800  0.1453 -0.1604 -0.6271
19536SOL    HW160602   5.783   0.443   3.760  0.7336 -0.4128 -0.4882
19536SOL    HW260603   5.804   0.508   3.894  0.7876 -0.1870 -0.6052
19537SOL     OW60604   7.763   4.424   5.534  0.0968 -0.1773  0.0963
19537SOL    HW160605   7.807   4.494   5.583 -0.2789 -0.6709  1.1908
19537SOL    HW260606   7.810   4.344   5.559 -0.1303 -0.4441 -0.3201
19538SOL     OW60607   2.298   8.387   1.438 -0.0459 -0.1210  0.3820
19538SOL    HW160608   2.361   8.452   1.407  1.7264 -1.1529  1.6750
19538SOL    HW260609   2.248   8.364   1.359 -0.9764  2.9609 -0.0645
19539SOL     OW60610   7.344   5.113   0.191 -0.2154  0.2450  0.3575
19539SOL    HW160611   7.256   5.095   0.156 -0.6338 -0.2136  1.5913
19539SOL    HW260612   7.332   5.190   0.246  0.4592  1.0140 -0.5363
19540SOL     OW60613   3.607   5.058   3.920  0.7237 -0.2983  0.1578
19540SOL    HW160614   3.662   5.025   3.992 -1.4074 -0.3904  1.8485
19540SOL    HW260615   3.598   5.152   3.939  0.7687 -0.1725 -0.4440
19541SOL     OW60616   7.238   7.619   0.389 -1.0198 -0.2768 -0.3251
19541SOL    HW160617   7.309   7.569   0.349 -2.8518 -3.3789  0.0316
19541SOL    HW260618   7.167   7.614   0.325 -2.1304 -0.4166  0.8945
19542SOL     OW60619   3.665   5.922   2.515 -0.1704  0.4728 -0.2718
19542SOL    HW160620   3.738   5.862   2.497 -1.0357 -0.2583 -1.5073
19542SOL    HW260621   3.650   5.915   2.609  0.1303 -0.8049 -0.3041
19543SOL     OW60622   5.592   4.635   5.482  0.1699 -0.3158  0.1813
19543SOL    HW160623   5.648   4.558   5.473  1.1583  0.5175 -1.2335
19543SOL    HW260624   5.571   4.639   5.576 -0.1399 -2.4298  0.2343
19544SOL     OW60625   1.101   2.630   0.636 -0.1489  0.1703  0.5795
19544SOL    HW160626   1.177   2.576   0.654 -2.0931 -4.0674 -2.1740
19544SOL    HW260627   1.063   2.648   0.722  1.0960 -2.3160  1.7583
19545SOL     OW60628   6.341   3.000   2.001 -0.2280  0.4013 -0.6727
19545SOL    HW160629   6.407   2.931   2.007 -1.1053 -0.3501  1.0527
19545SOL    HW260630   6.257   2.954   2.010 -0.8455  1.6268  0.1414
19546SOL     OW60631   1.145   5.402   7.004  0.0037  0.1872  0.0559
19546SOL    HW160632   1.061   5.403   7.050 -0.4415 -1.5655 -0.6234
19546SOL    HW260633   1.126   5.441   6.918 -0.3457 -0.9883 -0.4159
19547SOL     OW60634   5.381   4.696   1.852 -0.3112 -0.5421 -0.1856
19547SOL    HW160635   5.391   4.630   1.921 -2.3599 -1.9884 -1.1673
19547SOL    HW260636   5.442   4.667   1.783 -2.1464 -2.3407 -1.1837
19548SOL     OW60637   6.394   2.191   0.565  0.0603  0.0724  0.0047
19548SOL    HW160638   6.449   2.136   0.621 -0.0927 -0.1744 -0.0882
19548SOL    HW260639   6.423   2.281   0.584  1.1770 -0.0967 -0.7395
19549SOL     OW60640   7.998   1.539   8.653  0.0571  0.2602  0.6866
19549SOL    HW160641   7.968   1.448   8.652 -1.3986  0.7014 -0.9882
19549SOL    HW260642   8.084   1.537   8.613 -1.2489 -0.0735 -2.3587
19550SOL     OW60643   0.439   5.914   7.357  0.2174  0.3519  0.5956
19550SOL    HW160644   0.452   5.988   7.297 -0.1236 -0.8172 -0.9887
19550SOL    HW260645   0.364   5.867   7.321 -2.7364  1.7637  4.2230
19551SOL     OW60646   6.856   0.036   1.509  0.3912 -0.4451 -0.1345
19551SOL    HW160647   6.769   0.032   1.548  0.0655  2.0254 -0.4102
19551SOL    HW260648   6.914   0.061   1.581  0.5933 -0.5239 -0.2673
19552SOL     OW60649   8.571   3.246   3.478 -0.5997  0.3572 -0.2096
19552SOL    HW160650   8.596   3.175   3.537 -0.3431  0.8197  0.2453
19552SOL    HW260651   8.489   3.279   3.514 -1.1870 -0.2837 -0.9331
19553SOL     OW60652   3.944   1.229   1.887  0.3838 -0.2842 -0.3572
19553SOL    HW160653   3.950   1.212   1.793  1.7834 -0.8791 -0.1829
19553SOL    HW260654   4.025   1.193   1.923 -0.1096 -0.0164  1.0760
19554SOL     OW60655   7.419   1.449   3.928  0.3659  0.2001 -0.4617
19554SOL    HW160656   7.328   1.432   3.905  0.2809  0.8281 -0.5952
19554SOL    HW260657   7.414   1.508   4.004  0.6655  1.2409 -1.2372
19555SOL     OW60658   6.276   2.025   6.472  0.4784 -0.0687  0.1632
19555SOL    HW160659   6.193   2.071   6.487  0.6368 -0.2922  1.8377
19555SOL    HW260660   6.252   1.952   6.415 -0.6684 -0.6676  1.3737
19556SOL     OW60661   1.621   4.521   4.500  0.1583 -0.4193  0.0029
19556SOL    HW160662   1.660   4.444   4.540  0.7446  0.3796  1.0120
19556SOL    HW260663   1.635   4.510   4.406 -2.2826 -2.9147 -0.1883
19557SOL     OW60664   8.245   7.244   0.757  0.0842  0.2612  0.2993
19557SOL    HW160665   8.205   7.177   0.812 -1.2166  1.5507  1.0178
19557SOL    HW260666   8.189   7.321   0.770 -0.4135  0.6125 -2.9668
19558SOL     OW60667   8.674   8.874   3.897  0.4087 -0.0361  0.5131
19558SOL    HW160668   8.753   8.831   3.933 -0.2263 -1.1876  0.5850
19558SOL    HW260669   8.705   8.960   3.868  1.8087 -0.6529  0.0747
19559SOL     OW60670   5.165   5.625   4.420 -0.1968  0.0287  0.0726
19559SOL    HW160671   5.256   5.624   4.390 -0.0446 -0.0552  0.5410
19559SOL    HW260672   5.146   5.718   4.435 -0.0091 -0.0031  0.5180
19560SOL     OW60673   5.039   7.894   7.020 -0.1273 -0.3805  0.4071
19560SOL    HW160674   5.120   7.854   6.988 -0.6695 -0.8772 -0.3689
19560SOL    HW260675   5.042   7.984   6.989 -0.3997 -0.7114 -0.6363
19561SOL     OW60676   1.436   5.907   5.457  0.4003 -0.5038  0.0186
19561SOL    HW160677   1.493   5.971   5.500 -1.9132  0.3816  2.0800
19561SOL    HW260678   1.404   5.951   5.378  0.3635  0.1420  0.3862
19562SOL     OW60679   3.273   8.242   4.124  0.2119 -0.2454 -0.4299
19562SOL    HW160680   3.262   8.158   4.167 -0.3221 -0.0461 -0.1635
19562SOL    HW260681   3.337   8.289   4.177  2.0672 -1.2248 -1.7034
19563SOL     OW60682   1.171   2.285   6.196  0.0893  0.3079  0.1823
19563SOL    HW160683   1.095   2.240   6.235  0.9459  0.1533  1.7434
19563SOL    HW260684   1.139   2.373   6.176 -0.9068 -0.2051 -0.5917
19564SOL     OW60685   6.728   0.310   5.582 -0.1660  0.1170 -0.2788
19564SOL    HW160686   6.667   0.294   5.654 -0.5333  0.9347 -0.3992
19564SOL    HW260687   6.812   0.328   5.625 -0.2168 -0.1107 -0.0812
19565SOL     OW60688   3.550   0.686   2.476  0.1447  0.0361 -0.0087
19565SOL    HW160689   3.631   0.717   2.517  0.7802 -0.2995 -0.9821
19565SOL    HW260690   3.573   0.600   2.440 -0.5458  0.0886 -0.5814
19566SOL     OW60691   2.698   6.186   7.383  0.2076  0.0851  0.2509
19566SOL    HW160692   2.603   6.186   7.391  0.0902  0.8475 -0.8519
19566SOL    HW260693   2.720   6.096   7.361 -0.5696  0.4055 -2.1823
19567SOL     OW60694   1.245   7.254   7.730 -0.4176 -0.0577 -0.1441
19567SOL    HW160695   1.252   7.288   7.641 -1.6073  1.0995  0.1694
19567SOL    HW260696   1.180   7.184   7.725 -2.6050  1.8110  0.2187
19568SOL     OW60697   5.195   6.170   0.878  0.4701 -0.4355  0.2038
19568SOL    HW160698   5.277   6.193   0.834  0.5169 -0.5568  0.2274
19568SOL    HW260699   5.181   6.240   0.941  0.9542 -0.8072  0.7363
19569SOL     OW60700   0.753   0.767   7.571  0.0328  0.0427  0.3176
19569SOL    HW160701   0.786   0.795   7.656 -1.1472  2.3910  0.0950
19569SOL    HW260702   0.773   0.840   7.512 -2.9921  0.4474 -0.3950
19570SOL     OW60703   0.143   6.123   6.614 -0.0866 -0.4523 -0.3900
19570SOL    HW160704   0.073   6.059   6.633 -0.5357  0.1645  0.0934
19570SOL    HW260705   0.129   6.192   6.679  2.4589 -1.4318  1.3393
19571SOL     OW60706   0.557   5.079   2.438 -0.3328  0.0815 -0.0127
19571SOL    HW160707   0.547   5.055   2.346 -0.9945 -1.2439  0.3804
19571SOL    HW260708   0.545   4.997   2.485  0.7597  0.6071  1.2240
19572SOL     OW60709   4.978   4.706   2.885 -0.3539  0.4383 -0.0404
19572SOL    HW160710   4.973   4.787   2.835 -0.4906  1.1356  1.0674
19572SOL    HW260711   5.034   4.727   2.960  0.0708 -0.6559 -0.0194
19573SOL     OW60712   0.079   6.682   4.259 -0.4345  0.3642  0.8259
19573SOL    HW160713   0.109   6.763   4.300 -0.1802  0.9694 -0.5166
19573SOL    HW260714  -0.001   6.707   4.212  0.4120  0.1881 -0.7629
19574SOL     OW60715   1.370   7.385   8.042  0.0733 -0.2274 -0.2839
19574SOL    HW160716   1.460   7.356   8.026 -0.3953 -1.2515 -1.2591
19574SOL    HW260717   1.351   7.444   7.969 -0.2341 -0.4890 -0.4191
19575SOL     OW60718   4.893   5.262   1.816  0.2066  0.2325 -0.2941
19575SOL    HW160719   4.894   5.170   1.791  0.0254 -0.1698  1.0950
19575SOL    HW260720   4.805   5.276   1.853  0.1173  1.0471 -0.7873
19576SOL     OW60721   8.579   7.538   7.925  0.0877 -0.5290 -0.0631
19576SOL    HW160722   8.590   7.606   7.858 -1.3286 -0.0709  0.1269
19576SOL    HW260723   8.666   7.526   7.962  0.8602 -0.6568 -1.8555
19577SOL     OW60724   5.913   2.582   7.216 -0.0819 -0.0192 -0.2386
19577SOL    HW160725   5.856   2.587   7.293 -0.6895 -1.8870 -0.4970
19577SOL    HW260726   6.001   2.568   7.252  0.1503  2.1833  0.1479
19578SOL     OW60727   3.447   1.544   7.028  0.2240 -0.1074 -0.1830
19578SOL    HW160728   3.359   1.559   6.994 -1.0482 -2.4692  1.7101
19578SOL    HW260729   3.468   1.624   7.076 -1.8847 -0.2762  1.1742
19579SOL     OW60730   5.376   4.095   4.390 -0.0037 -0.4893 -0.3589
19579SOL    HW160731   5.357   4.151   4.465  2.3803 -1.5652  1.1513
19579SOL    HW260732   5.360   4.150   4.314  1.7398  2.1283  1.0408
19580SOL     OW60733   2.653   2.200   7.132  0.2781 -0.2102 -0.3189
19580SOL    HW160734   2.701   2.144   7.071  1.1543 -0.7589  0.8437
19580SOL    HW260735   2.713   2.272   7.151 -0.7689  1.0706 -1.6493
19581SOL     OW60736   2.362   8.500   1.092 -0.2831 -0.0889  0.1291
19581SOL    HW160737   2.272   8.527   1.109 -0.5257 -0.0877 -1.0736
19581SOL    HW260738   2.409   8.582   1.076 -0.6813 -0.2117 -1.9511
19582SOL     OW60739   3.620   7.122   2.893 -0.0797  0.2406 -0.2376
19582SOL    HW160740   3.567   7.172   2.831 -0.6613 -0.9587 -0.7506
19582SOL    HW260741   3.704   7.109   2.849 -0.5743 -0.8182 -0.9186
19583SOL     OW60742   0.808   2.983   8.409 -0.6587  0.2439  0.3388
19583SOL    HW160743   0.816   2.988   8.314  0.4778  0.9665  0.4577
19583SOL    HW260744   0.886   2.936   8.438 -0.5805  0.7479  0.9728
19584SOL     OW60745   2.230   4.684   2.445  0.0894 -0.6234 -0.0967
19584SOL    HW160746   2.187   4.624   2.506 -0.6121 -0.4280 -0.3838
19584SOL    HW260747   2.251   4.760   2.497  0.7658 -1.0184  0.2158
19585SOL     OW60748   7.072   6.902   5.135  0.0694 -0.0231  0.1054
19585SOL    HW160749   7.108   6.814   5.142 -0.2064 -0.0493  1.4865
19585SOL    HW260750   7.085   6.926   5.043  0.8371 -1.1973 -0.1158
19586SOL     OW60751   8.214   5.922   6.948 -0.2233  0.1799  0.0297
19586SOL    HW160752   8.184   5.852   7.007  1.1855 -0.4942 -0.0178
19586SOL    HW260753   8.234   5.878   6.866  2.0351  0.3291  0.4199
19587SOL     OW60754   7.342   8.091   7.359  0.0925  0.1698 -0.2585
19587SOL    HW160755   7.415   8.031   7.349 -0.7773 -0.8477 -0.7333
19587SOL    HW260756   7.314   8.081   7.450 -0.6935 -0.9596 -0.5926
19588SOL     OW60757   7.595   6.497   5.987  0.6730  0.1002 -0.6144
19588SOL    HW160758   7.655   6.507   6.060 -0.6598  0.8121  0.4187
19588SOL    HW260759   7.579   6.402   5.982  0.6442  0.0592  0.1399
19589SOL     OW60760   3.107   5.873   5.315  0.0631  0.4993  0.6365
19589SOL    HW160761   3.050   5.898   5.388 -0.4434  0.5869  0.2167
19589SOL    HW260762   3.056   5.810   5.265  0.0709  1.0693 -0.1111
19590SOL     OW60763   6.704   6.717   3.780 -0.3354  0.0580 -0.1915
19590SOL    HW160764   6.700   6.712   3.875 -1.7347  1.5609 -0.1242
19590SOL    HW260765   6.789   6.679   3.757  1.1916  1.9470  1.8629
19591SOL     OW60766   5.292   4.267   4.620  0.5076 -0.0950  0.0302
19591SOL    HW160767   5.211   4.310   4.592  0.8555 -0.2590 -1.3071
19591SOL    HW260768   5.360   4.333   4.608  0.7341 -0.3266  0.0357
19592SOL     OW60769   4.048   8.700   3.662 -0.1074  0.6399  0.2025
19592SOL    HW160770   4.043   8.689   3.757  0.3557 -0.2646  0.1391
19592SOL    HW260771   4.113   8.769   3.649 -0.1019  0.6994  0.5468
19593SOL     OW60772   3.405   1.850   0.739  0.2559  0.1895 -0.3276
19593SOL    HW160773   3.441   1.785   0.799 -1.9683 -0.0540  0.8694
19593SOL    HW260774   3.310   1.836   0.744 -0.0786  0.8307 -3.1755
19594SOL     OW60775   7.604   8.729   2.004  0.1335  0.1381 -0.3285
19594SOL    HW160776   7.561   8.752   2.087 -0.7474  1.1921 -1.0440
19594SOL    HW260777   7.652   8.649   2.024  1.0160  1.0531  1.5542
19595SOL     OW60778   3.934   4.376   0.122  0.3347 -0.3496 -0.5556
19595SOL    HW160779   3.885   4.382   0.204  0.0945 -0.7189 -0.6672
19595SOL    HW260780   3.995   4.449   0.125 -2.0500  1.8323 -1.6402
19596SOL     OW60781   5.774   6.193   0.388  0.4564 -0.5151  0.1835
19596SOL    HW160782   5.798   6.196   0.295  0.1841  0.7557  0.1396
19596SOL    HW260783   5.692   6.241   0.394  0.7154 -0.1595  1.1547
19597SOL     OW60784   3.505   8.171   6.626 -0.1013 -0.2170  0.4321
19597SOL    HW160785   3.557   8.100   6.664 -0.0122 -1.1239 -1.2941
19597SOL    HW260786   3.557   8.202   6.552 -1.1467  0.1470 -0.1708
19598SOL     OW60787   3.020   5.388   2.251  0.2685  0.1450 -0.2398
19598SOL    HW160788   3.041   5.453   2.184  0.4209  0.9784  0.5889
19598SOL    HW260789   2.988   5.439   2.325  0.0675 -0.7556  0.3144
19599SOL     OW60790   1.662   1.168   4.677 -0.7259  0.4649  0.1773
19599SOL    HW160791   1.675   1.215   4.594 -2.2632 -2.6085 -2.0226
19599SOL    HW260792   1.731   1.102   4.677 -0.4526  0.7228  1.6553
19600SOL     OW60793   6.085   1.913   7.750 -0.1885  0.4404 -0.0150
19600SOL    HW160794   6.172   1.904   7.789  0.1831  1.0992 -0.6671
19600SOL    HW260795   6.055   2.000   7.777 -0.2961  0.5456 -0.4598
19601SOL     OW60796   2.701   3.616   4.738 -0.0326  0.6102  0.3206
19601SOL    HW160797   2.776   3.674   4.723 -0.3626  1.1708  0.7958
19601SOL    HW260798   2.628   3.675   4.757 -0.6371  0.0748 -0.2865
19602SOL     OW60799   4.480   6.390   3.225  0.0113 -0.2082  0.0673
19602SOL    HW160800   4.532   6.399   3.304 -2.2025 -0.4201  1.6228
19602SOL    HW260801   4.407   6.333   3.250 -0.1210 -1.3071 -2.4767
19603SOL     OW60802   4.612   7.744   7.166  0.2628  0.5384  0.2338
19603SOL    HW160803   4.558   7.808   7.213  2.2624  1.2558  1.7266
19603SOL    HW260804   4.645   7.686   7.235  2.2223  0.7931 -0.4200
19604SOL     OW60805   4.263   8.395   4.174  0.1729  0.1695  0.0331
19604SOL    HW160806   4.338   8.346   4.139  0.3535  0.5966 -0.1897
19604SOL    HW260807   4.300   8.480   4.198  0.0541 -0.1056  1.2616
19605SOL     OW60808   0.409   4.582   2.839 -0.0038  0.3013  0.5081
19605SOL    HW160809   0.369   4.496   2.851 -2.3789  1.5357  2.4119
19605SOL    HW260810   0.399   4.601   2.746 -1.8952 -0.4163  0.5283
19606SOL     OW60811   8.816   7.138   1.025 -0.2076 -0.0689 -0.1416
19606SOL    HW160812   8.732   7.172   1.055 -1.0778 -2.5462  0.4500
19606SOL    HW260813   8.820   7.163   0.933 -0.4598  2.1104  0.3849
19607SOL     OW60814   2.992   2.383   5.733 -0.4077 -0.6535 -0.2421
19607SOL    HW160815   2.927   2.405   5.665  1.2997 -0.2237 -1.8226
19607SOL    HW260816   3.052   2.322   5.689  0.8848 -0.1635  0.8019
19608SOL     OW60817   2.556   8.522   1.947  0.1037 -0.6352  0.2048
19608SOL    HW160818   2.642   8.483   1.929  0.8452  0.6244  0.8718
19608SOL    HW260819   2.566   8.563   2.033 -0.9772  0.0854  0.0115
19609SOL     OW60820   8.307   4.411   7.739  0.3176  0.2208 -0.3192
19609SOL    HW160821   8.320   4.337   7.678  0.8557 -0.3830  0.5082
19609SOL    HW260822   8.246   4.377   7.805 -0.0840  0.7995 -0.3838
19610SOL     OW60823   0.467   8.639   4.415 -0.1623 -0.0542  0.0776
19610SOL    HW160824   0.488   8.546   4.411 -0.4058 -0.1164  0.2810
19610SOL    HW260825   0.426   8.658   4.330  2.0645  0.4062 -0.9894
19611SOL     OW60826   2.037   3.380   8.599 -0.0088  0.3225  0.3793
19611SOL    HW160827   2.048   3.475   8.602  0.5936  0.2601  0.2036
19611SOL    HW260828   1.951   3.367   8.559  0.0826  0.7845  0.0309
19612SOL     OW60829   4.671   0.185   2.030 -0.0457 -0.3062  0.6212
19612SOL    HW160830   4.630   0.271   2.039 -2.0794 -1.1680  0.1793
19612SOL    HW260831   4.731   0.194   1.956 -1.4918  0.3233 -0.5248
19613SOL     OW60832   0.459   5.756   0.313 -0.1355  0.1986  0.3048
19613SOL    HW160833   0.460   5.849   0.333 -0.7050 -0.0206  1.4206
19613SOL    HW260834   0.508   5.715   0.384  0.3332 -0.3439 -0.3118
19614SOL     OW60835   8.874   4.686   2.276 -0.4896  0.3783  0.2829
19614SOL    HW160836   8.857   4.765   2.225 -3.4488 -0.6093 -0.4567
19614SOL    HW260837   8.788   4.657   2.305  0.2672 -3.2727 -0.5489
19615SOL     OW60838   0.993   0.548   4.771 -0.0516  0.1406  0.0553
19615SOL    HW160839   0.982   0.529   4.678 -0.7482  0.7381  0.0088
19615SOL    HW260840   1.074   0.598   4.775 -1.3576  2.4958 -0.6079
19616SOL     OW60841   2.334   3.620   7.818 -0.4215  0.2244 -0.0220
19616SOL    HW160842   2.347   3.559   7.891 -0.5773 -0.1091 -0.2683
19616SOL    HW260843   2.417   3.666   7.809  0.5202 -1.6282 -1.3562
19617SOL     OW60844   3.076   4.403   3.331 -0.0259 -0.3761  0.5150
19617SOL    HW160845   3.020   4.460   3.383 -1.1401 -0.6528 -0.3390
19617SOL    HW260846   3.119   4.461   3.268 -1.6283 -0.5135 -0.7584
19618SOL     OW60847   7.272   8.033   1.480 -0.3315  0.4479 -0.5973
19618SOL    HW160848   7.179   8.049   1.494 -0.3568 -0.5154  0.4296
19618SOL    HW260849   7.275   7.957   1.422 -0.1830  0.0055 -0.0120
19619SOL     OW60850   6.142   2.611   5.592 -0.7255 -0.0247 -0.4473
19619SOL    HW160851   6.095   2.556   5.655 -0.2847 -0.9470 -0.9090
19619SOL    HW260852   6.137   2.699   5.629 -0.9487 -0.4659  0.6024
19620SOL     OW60853   1.587   4.544   2.518 -0.2170  0.3142 -0.4019
19620SOL    HW160854   1.641   4.538   2.597  1.1905 -1.0360 -1.3859
19620SOL    HW260855   1.540   4.460   2.515  0.5444 -0.0942 -1.5004
19621SOL     OW60856   6.448   8.704   5.756  0.0325  0.0218 -0.1766
19621SOL    HW160857   6.369   8.720   5.705  1.1626  1.2871 -1.6070
19621SOL    HW260858   6.467   8.787   5.799 -0.2072 -0.6870  1.3844
19622SOL     OW60859   2.654   7.015   7.362  0.1629 -0.2007  0.1857
19622SOL    HW160860   2.619   7.031   7.450  0.5568  0.7250  0.1882
19622SOL    HW260861   2.689   6.926   7.366  0.8777  0.1032  1.2128
19623SOL     OW60862   4.732   8.652   1.870  0.0627 -0.0078  0.6269
19623SOL    HW160863   4.654   8.697   1.904 -1.3500  0.0416 -2.2876
19623SOL    HW260864   4.806   8.702   1.904 -1.1438  0.0990  3.3049
19624SOL     OW60865   7.865   2.946   2.340 -0.1279 -0.6422 -0.2325
19624SOL    HW160866   7.850   2.993   2.422  0.5551 -1.2916  0.2876
19624SOL    HW260867   7.787   2.891   2.330 -0.3701 -0.3053 -0.1950
19625SOL     OW60868   4.336   4.082   4.569  0.3654 -0.6039 -0.1511
19625SOL    HW160869   4.421   4.109   4.605 -0.0056  0.8389 -0.2922
19625SOL    HW260870   4.346   3.988   4.551  1.2989 -0.8891  1.6124
19626SOL     OW60871   7.570   0.626   3.430 -0.0916  0.2141  0.0616
19626SOL    HW160872   7.610   0.678   3.360 -0.8261  0.8566  0.0995
19626SOL    HW260873   7.485   0.600   3.396  0.4422 -1.3728 -0.1217
19627SOL     OW60874   5.006   5.079   2.904 -0.0927 -0.0021  0.0439
19627SOL    HW160875   5.021   5.162   2.949 -0.9002  0.2694 -0.1748
19627SOL    HW260876   4.921   5.090   2.860  0.2310 -0.5969 -0.7635
19628SOL     OW60877   8.884   3.869   5.298 -0.0523 -0.0691  0.2557
19628SOL    HW160878   8.798   3.911   5.305 -0.2125 -0.1740 -0.9403
19628SOL    HW260879   8.874   3.787   5.346 -0.5419  0.0412  0.3520
19629SOL     OW60880   8.078   2.988   3.000 -0.2577  0.2923  0.0653
19629SOL    HW160881   8.141   3.054   3.029 -0.3140  0.6081 -0.5314
19629SOL    HW260882   8.066   2.932   3.077  0.8869  0.1154  0.1352
19630SOL     OW60883   7.345   8.747   6.974  0.2351 -0.2221 -0.4379
19630SOL    HW160884   7.358   8.678   6.909 -2.5024 -0.5020 -0.7691
19630SOL    HW260885   7.330   8.699   7.056  0.5126  0.0690 -0.2115
19631SOL     OW60886   3.303   5.922   0.363  0.0585 -0.4806 -0.6329
19631SOL    HW160887   3.291   5.974   0.442  3.4256  0.7020 -0.7178
19631SOL    HW260888   3.271   5.976   0.292  1.0331  0.3674 -0.4485
19632SOL     OW60889   3.360   5.250   7.382 -0.2602 -0.8258  0.0606
19632SOL    HW160890   3.307   5.189   7.331 -2.2773  1.5067 -0.8721
19632SOL    HW260891   3.371   5.326   7.325  0.2222  0.5940  1.9310
19633SOL     OW60892   5.758   8.767   6.836 -0.1044  0.3957  0.0581
19633SOL    HW160893   5.814   8.754   6.912 -0.6424 -0.2047  0.3608
19633SOL    HW260894   5.743   8.862   6.833  0.1760  0.4564  0.5123
19634SOL     OW60895   4.156   7.693   6.527 -0.9123 -0.2253  0.3660
19634SOL    HW160896   4.147   7.689   6.623 -1.0303  1.6056  0.4735
19634SOL    HW260897   4.106   7.617   6.496 -0.9457 -0.8113  1.7491
19635SOL     OW60898   8.523   8.083   7.680  0.3102  0.5451 -0.5135
19635SOL    HW160899   8.505   8.010   7.620  0.2173  0.9821 -1.0247
19635SOL    HW260900   8.436   8.116   7.703  0.3040 -0.2247  0.6310
19636SOL     OW60901   5.990   2.365   6.036  0.1996 -0.1542 -0.5253
19636SOL    HW160902   6.063   2.418   6.003  0.0472  0.0243 -0.5840
19636SOL    HW260903   6.006   2.277   6.002  0.6094 -0.2110 -0.1907
19637SOL     OW60904   5.975   5.346   7.125 -0.1744  0.2096 -0.2864
19637SOL    HW160905   6.056   5.309   7.161 -0.5437 -0.8374 -0.5225
19637SOL    HW260906   5.946   5.409   7.192 -1.0389 -1.9269  1.4617
19638SOL     OW60907   6.985   7.463   2.197 -0.3808 -0.0044 -0.4068
19638SOL    HW160908   6.982   7.368   2.204 -0.7887 -0.1282 -1.9222
19638SOL    HW260909   7.041   7.480   2.120  1.2693  1.0478  0.9445
19639SOL     OW60910   1.733   2.839   8.723  0.6254  0.0290  0.1227
19639SOL    HW160911   1.748   2.849   8.816 -2.2139  2.1224  0.5034
19639SOL    HW260912   1.767   2.920   8.684 -2.5523  1.5179  0.1260
19640SOL     OW60913   3.539   8.431   7.368  0.2207 -0.6914 -0.8399
19640SOL    HW160914   3.631   8.411   7.388 -0.1182 -0.3624  1.2570
19640SOL    HW260915   3.491   8.403   7.445 -1.4444 -0.6611 -1.8200
19641SOL     OW60916   6.143   6.176   1.494 -0.1460  0.2186  0.3645
19641SOL    HW160917   6.113   6.148   1.408 -0.3474  0.7338  0.2680
19641SOL    HW260918   6.239   6.168   1.490 -0.1909 -0.3191  0.2947
19642SOL     OW60919   2.874   8.273   4.552 -0.2151 -0.0913 -0.1999
19642SOL    HW160920   2.824   8.344   4.512  2.9648  2.0345 -0.7591
19642SOL    HW260921   2.836   8.262   4.639 -1.4611  1.5886 -0.4919
19643SOL     OW60922   0.250   0.913   2.257  0.2425  0.2909 -0.1689
19643SOL    HW160923   0.244   1.004   2.227 -0.4923  0.7807  1.3381
19643SOL    HW260924   0.266   0.862   2.177 -2.0707  1.4443 -1.4786
19644SOL     OW60925   0.214   8.040   1.705  0.2838 -0.1745  0.4096
19644SOL    HW160926   0.237   8.133   1.714 -1.1013 -0.0374  3.5324
19644SOL    HW260927   0.119   8.040   1.697  0.0766 -1.3907  2.4596
19645SOL     OW60928   3.189   8.106   6.868  0.1113 -0.4814 -0.1992
19645SOL    HW160929   3.118   8.088   6.930  1.6281  1.9533  2.5416
19645SOL    HW260930   3.256   8.042   6.889  0.3907 -0.0301  0.3247
19646SOL     OW60931   1.872   6.912   5.742 -0.3462  0.0695  0.1161
19646SOL    HW160932   1.814   6.986   5.763 -0.7079 -0.3973  0.7969
19646SOL    HW260933   1.825   6.835   5.774  1.2149 -0.2136  1.8998
19647SOL     OW60934   6.981   1.787   0.206 -0.0562 -0.4318  0.4737
19647SOL    HW160935   6.924   1.711   0.200 -1.4342  0.5491  0.7995
19647SOL    HW260936   6.951   1.834   0.284  1.1414  0.1641  0.6045
19648SOL     OW60937   6.814   5.853   5.675  0.0717  0.5325 -0.0325
19648SOL    HW160938   6.862   5.776   5.643 -0.5900  0.2120 -0.2782
19648SOL    HW260939   6.875   5.926   5.664  0.6861  0.0562  0.1415
19649SOL     OW60940   3.352   6.586   4.511  0.1080  0.2672  0.0712
19649SOL    HW160941   3.424   6.641   4.540  0.0061  0.4223  0.0326
19649SOL    HW260942   3.340   6.522   4.581 -0.2745  0.7719  0.4714
19650SOL     OW60943   8.078   7.711   2.445  0.2814  0.5225 -0.2552
19650SOL    HW160944   8.165   7.702   2.408  0.0521  0.0664 -0.6964
19650SOL    HW260945   8.024   7.649   2.395  0.2475 -1.2183  1.7975
19651SOL     OW60946   6.494   5.487   6.237 -0.3075  0.3153 -0.1684
19651SOL    HW160947   6.505   5.581   6.222  0.7036 -0.1133 -2.4933
19651SOL    HW260948   6.582   5.455   6.255 -0.6810 -0.1808  0.8625
19652SOL     OW60949   1.533   3.450   0.217  0.0670 -0.5018  0.2428
19652SOL    HW160950   1.499   3.391   0.150  0.8772 -0.8430  0.1199
19652SOL    HW260951   1.599   3.398   0.263  0.4489  0.1528  0.4400
19653SOL     OW60952   4.432   7.310   3.126  0.1893  0.2585 -0.2819
19653SOL    HW160953   4.515   7.317   3.080  0.0895  0.9516 -0.3620
19653SOL    HW260954   4.435   7.379   3.192 -0.6107  0.7746 -0.7624
19654SOL     OW60955   2.353   8.806   5.524 -0.7901  0.5207 -0.5858
19654SOL    HW160956   2.432   8.827   5.574 -0.2985  1.5747 -1.7433
19654SOL    HW260957   2.331   8.717   5.550  0.1153  0.6149  0.6037
19655SOL     OW60958   1.320   7.335   6.068 -0.0041 -0.3653  0.0528
19655SOL    HW160959   1.279   7.259   6.110  2.0344 -1.5463  0.0366
19655SOL    HW260960   1.332   7.309   5.977 -0.3990  0.4855 -0.2562
19656SOL     OW60961   2.177   1.567   4.985  0.2241 -0.0441  0.5364
19656SOL    HW160962   2.118   1.517   5.041 -0.5245 -0.1617 -0.3326
19656SOL    HW260963   2.163   1.532   4.897 -1.7677  2.8728 -0.4827
19657SOL     OW60964   0.234   4.742   8.705  0.3198  0.3255  0.7612
19657SOL    HW160965   0.321   4.743   8.744  0.6001 -0.3405  0.1657
19657SOL    HW260966   0.226   4.828   8.664  0.5439  0.5286  1.1304
19658SOL     OW60967   4.998   0.054   2.565 -0.5870  0.2734  0.8018
19658SOL    HW160968   4.932   0.110   2.606 -1.0539 -0.1755  0.6831
19658SOL    HW260969   4.947  -0.014   2.521 -0.1837  1.4483 -1.6350
19659SOL     OW60970   6.719   7.250   6.412 -0.5778  0.0434  0.1342
19659SOL    HW160971   6.796   7.306   6.413 -0.5839  0.1365 -1.6379
19659SOL    HW260972   6.660   7.291   6.348 -1.4283 -0.8855  0.2941
19660SOL     OW60973   5.594   3.044   7.054 -0.2746  0.2179 -0.1129
19660SOL    HW160974   5.666   3.027   7.115  0.8044  0.9206 -1.1530
19660SOL    HW260975   5.636   3.051   6.968 -1.7027 -0.2626 -0.8805
19661SOL     OW60976   6.474   0.553   1.324 -0.3769  0.5125  0.1310
19661SOL    HW160977   6.397   0.565   1.380 -0.2300  0.7380  0.2854
19661SOL    HW260978   6.519   0.637   1.326  0.7941 -0.1053  1.4262
19662SOL     OW60979   1.931   2.336   1.819  0.5107  0.7487  0.0322
19662SOL    HW160980   1.899   2.400   1.755  2.0730  1.5205 -0.0256
19662SOL    HW260981   1.860   2.272   1.826 -0.1109  1.1797 -1.7135
19663SOL     OW60982   0.066   7.228   4.302  0.5988 -0.2321  0.5165
19663SOL    HW160983   0.096   7.140   4.281  0.3695 -0.0344 -0.7170
19663SOL    HW260984  -0.002   7.216   4.369  1.5460 -0.8682  1.3933
19664SOL     OW60985   7.655   3.336   4.880 -0.9276  0.4305  0.5087
19664SOL    HW160986   7.695   3.268   4.825  0.0896  0.7516  0.8209
19664SOL    HW260987   7.568   3.302   4.901 -1.8477  0.8684 -2.2884
19665SOL     OW60988   4.587   1.235   1.244  0.2405  0.3229  0.1326
19665SOL    HW160989   4.544   1.149   1.238 -1.0398  0.8487  1.3004
19665SOL    HW260990   4.663   1.220   1.300  1.1023 -0.4139 -1.1745
19666SOL     OW60991   3.932   4.331   2.806 -0.7193 -0.5202  0.1842
19666SOL    HW160992   3.897   4.241   2.805  1.2639 -1.3404  0.4660
19666SOL    HW260993   3.928   4.359   2.715 -0.1583 -1.4042 -0.1275
19667SOL     OW60994   2.321   0.789   7.070  0.0434  0.0585  0.4322
19667SOL    HW160995   2.369   0.779   7.153  0.1913  2.6029  0.7310
19667SOL    HW260996   2.229   0.779   7.094  0.1666 -0.9374  0.5539
19668SOL     OW60997   8.255   7.291   2.216 -0.0602  0.4477 -0.8748
19668SOL    HW160998   8.241   7.294   2.310  1.1737  1.0126 -0.6987
19668SOL    HW260999   8.333   7.236   2.205 -0.9314 -0.7063 -1.6723
19669SOL     OW61000   5.095   3.179   4.716  0.3385 -0.7811 -0.3153
19669SOL    HW161001   5.047   3.173   4.633 -1.0856  3.1711  0.0199
19669SOL    HW261002   5.116   3.271   4.724  2.3674 -1.3851  2.7701
19670SOL     OW61003   2.063   5.463   4.052 -0.3258 -0.1787 -0.1178
19670SOL    HW161004   2.017   5.496   3.974 -0.4935  1.8321  0.7777
19670SOL    HW261005   2.053   5.532   4.117  2.6845 -0.3178  0.6388
19671SOL     OW61006   8.487   1.093   7.567  0.4498 -0.7042 -0.1016
19671SOL    HW161007   8.495   0.997   7.569  0.8737 -0.6732 -0.1148
19671SOL    HW261008   8.440   1.115   7.647 -0.1303 -0.9657 -0.3705
19672SOL     OW61009   4.368   8.118   3.830  0.1882  0.0895 -0.2640
19672SOL    HW161010   4.448   8.092   3.785 -0.3682  0.1662 -1.3188
19672SOL    HW261011   4.321   8.036   3.844 -0.0253  0.1581 -0.5775
19673SOL     OW61012   3.951   5.753   2.440  0.0185  0.2788 -0.3717
19673SOL    HW161013   3.904   5.715   2.365 -1.1944 -0.4728  0.7352
19673SOL    HW261014   3.971   5.678   2.496  1.3300  0.7761 -0.1254
19674SOL     OW61015   0.480   5.812   5.436 -0.4599 -0.1647 -0.1262
19674SOL    HW161016   0.468   5.848   5.348 -0.5920  0.0271 -0.0308
19674SOL    HW261017   0.466   5.718   5.426 -1.2568 -0.0477 -0.1653
19675SOL     OW61018   4.998   1.380   3.524 -0.2954  0.2923 -0.0572
19675SOL    HW161019   5.019   1.349   3.612 -0.3674 -0.0809 -0.1683
19675SOL    HW261020   4.903   1.374   3.519 -0.5418  2.5169  0.6489
19676SOL     OW61021   7.883   0.080   7.528 -0.2649  0.1123  0.0663
19676SOL    HW161022   7.874   0.054   7.620  1.9760 -2.1117 -0.2507
19676SOL    HW261023   7.920   0.168   7.532  0.3607 -0.1858  1.2986
19677SOL     OW61024   3.198   8.545   6.613 -0.2601 -0.3197  0.2679
19677SOL    HW161025   3.233   8.541   6.524  1.7412 -0.4605  1.0285
19677SOL    HW261026   3.177   8.455   6.635 -0.0232 -0.3852  0.2237
19678SOL     OW61027   2.476   0.319   0.948  0.2636 -0.7569  0.2113
19678SOL    HW161028   2.520   0.364   0.876 -1.7615 -0.9849 -1.2347
19678SOL    HW261029   2.509   0.362   1.027  2.4226 -0.3992 -0.8287
19679SOL     OW61030   3.066   5.029   0.470  0.0610  0.0755  0.3419
19679SOL    HW161031   3.119   4.971   0.524  0.7213  0.7010  0.3777
19679SOL    HW261032   3.128   5.068   0.408 -0.0934  1.8397  1.2447
19680SOL     OW61033   1.721   0.335   3.398  0.7131  0.6198  0.3237
19680SOL    HW161034   1.666   0.305   3.326 -2.1284  2.3136  1.5921
19680SOL    HW261035   1.787   0.267   3.409 -0.9230 -1.4029 -1.5470
19681SOL     OW61036   0.519   2.651   1.650  0.0584  0.1800  0.6918
19681SOL    HW161037   0.455   2.699   1.598  1.2744  1.6913  0.4886
19681SOL    HW261038   0.522   2.564   1.611 -2.2246 -0.1095  1.0609
19682SOL     OW61039   8.570   7.485   6.046 -0.3020  0.0627  0.3042
19682SOL    HW161040   8.625   7.544   5.994 -0.3109 -0.4649 -0.3075
19682SOL    HW261041   8.627   7.411   6.068 -0.6614 -0.3158 -0.0300
19683SOL     OW61042   7.200   2.596   4.012 -0.2351 -0.3876 -0.0881
19683SOL    HW161043   7.161   2.526   3.960  1.3350  0.2253 -2.1798
19683SOL    HW261044   7.190   2.566   4.103  1.4263 -3.9009 -0.9093
19684SOL     OW61045   5.636   2.640   1.716  0.3216  0.1133 -0.7324
19684SOL    HW161046   5.712   2.587   1.695 -1.2895 -2.3663 -0.7940
19684SOL    HW261047   5.575   2.626   1.643 -0.2897  1.8918 -0.6225
19685SOL     OW61048   5.156   2.750   3.864 -0.4288  0.0342  0.0000
19685SOL    HW161049   5.218   2.805   3.912  0.9380 -2.7206  1.6139
19685SOL    HW261050   5.077   2.804   3.858  0.2107  1.5302  3.0227
19686SOL     OW61051   6.225   5.574   0.897  0.1529  0.8085 -0.0052
19686SOL    HW161052   6.312   5.608   0.877  2.0522 -2.8131  1.0404
19686SOL    HW261053   6.210   5.599   0.989  1.1510 -0.3126  0.4968
19687SOL     OW61054   7.614   4.692   4.528  0.1737  0.1737 -0.6399
19687SOL    HW161055   7.580   4.778   4.503 -1.3044  0.1683  1.1459
19687SOL    HW261056   7.615   4.642   4.446  0.1231  1.5869 -1.5254
19688SOL     OW61057   6.496   6.964   4.356 -0.3404 -0.3201  0.3959
19688SOL    HW161058   6.567   6.900   4.364  0.1009  0.3289  2.0849
19688SOL    HW261059   6.529   7.027   4.293  1.0384  0.4707  1.8218
19689SOL     OW61060   7.765   6.647   7.015 -0.2478 -0.3404 -0.0272
19689SOL    HW161061   7.760   6.739   7.041  0.0703 -0.1422 -0.6547
19689SOL    HW261062   7.686   6.607   7.053 -0.3246  0.1591  0.3505
19690SOL     OW61063   5.456   6.252   2.887 -0.4155 -0.1493  0.5468
19690SOL    HW161064   5.539   6.227   2.928 -0.0596  1.2469  0.7131
19690SOL    HW261065   5.396   6.266   2.960 -0.5979 -0.4387  0.4554
19691SOL     OW61066   1.670   3.429   7.937 -0.0732  0.2265  0.3426
19691SOL    HW161067   1.591   3.474   7.907  0.3888  0.6828 -0.1924
19691SOL    HW261068   1.712   3.397   7.857 -1.1839 -2.5746  0.7523
19692SOL     OW61069   5.321   4.017   8.548  0.0419 -0.2656 -0.4614
19692SOL    HW161070   5.328   3.927   8.516 -0.0776 -1.1862  1.8982
19692SOL    HW261071   5.245   4.053   8.501 -0.2175 -1.5579 -1.0749
19693SOL     OW61072   6.858   2.573   0.240 -0.0102  0.5850  0.0826
19693SOL    HW161073   6.785   2.551   0.182 -0.3282  1.1600  0.2508
19693SOL    HW261074   6.934   2.578   0.182 -0.3059  1.0582 -0.2831
19694SOL     OW61075   3.161   2.521   1.870  0.8102  0.0743 -0.7518
19694SOL    HW161076   3.118   2.468   1.803  2.1110 -2.4597  0.2463
19694SOL    HW261077   3.091   2.550   1.927  0.0080 -0.3406 -1.5053
19695SOL     OW61078   4.267   4.964   2.731 -0.3867 -0.0041  0.5173
19695SOL    HW161079   4.326   4.974   2.657  0.0678 -0.9085  0.7469
19695SOL    HW261080   4.323   4.973   2.808 -0.6334 -0.3424  0.7384
19696SOL     OW61081   7.552   1.211   1.974 -0.3791  0.5012  0.3861
19696SOL    HW161082   7.642   1.189   1.997 -0.2145  0.8235  0.0526
19696SOL    HW261083   7.549   1.307   1.979 -0.3115  0.5911 -1.0416
19697SOL     OW61084   4.128   4.424   7.298 -0.3415 -0.3539  0.3760
19697SOL    HW161085   4.146   4.504   7.249 -1.9392 -0.4732 -0.4867
19697SOL    HW261086   4.188   4.359   7.262  1.8000  0.6678  1.8787
19698SOL     OW61087   3.585   3.203   2.464  0.0943 -0.0158  0.3824
19698SOL    HW161088   3.525   3.215   2.390 -0.5771 -0.6242  0.8124
19698SOL    HW261089   3.540   3.141   2.521  1.0428 -0.3077  0.8295
19699SOL     OW61090   4.214   7.145   2.556  0.5732 -0.6564  0.3138
19699SOL    HW161091   4.297   7.177   2.591 -0.3323  0.6050  1.4440
19699SOL    HW261092   4.185   7.215   2.496  0.2963 -1.0572 -0.0272
19700SOL     OW61093   3.750   6.232   3.583  0.2907  0.3998 -0.4831
19700SOL    HW161094   3.719   6.189   3.504 -3.0720 -0.2146  0.9992
19700SOL    HW261095   3.790   6.162   3.635 -0.4405  0.1107 -0.2977
19701SOL     OW61096   6.106   5.979   0.331 -0.3401  0.3616  0.2953
19701SOL    HW161097   6.128   6.043   0.264 -2.5578  0.0327 -0.8561
19701SOL    HW261098   6.077   5.901   0.282 -1.4446 -0.0993  1.6117
19702SOL     OW61099   0.044   3.430   7.922 -0.0303 -0.0720 -0.3553
19702SOL    HW161100  -0.015   3.493   7.880 -0.3622 -0.0582  0.1270
19702SOL    HW261101   0.131   3.468   7.911 -0.0910 -0.1651 -1.2062
19703SOL     OW61102   7.011   5.990   2.425 -0.5678 -0.0806  0.3379
19703SOL    HW161103   7.010   5.894   2.422  1.7333 -0.2179  1.3488
19703SOL    HW261104   6.963   6.017   2.347 -1.4253 -2.0531  0.1250
19704SOL     OW61105   6.135   6.253   2.052  0.3108 -0.2852 -0.2140
19704SOL    HW161106   6.138   6.248   1.956  0.3582  0.3294 -0.2515
19704SOL    HW261107   6.223   6.281   2.077  0.2236 -0.1923 -0.0100
19705SOL     OW61108   8.790   0.521   4.886  0.4272  0.1981 -0.3023
19705SOL    HW161109   8.737   0.599   4.872 -0.4148 -0.4661 -0.9395
19705SOL    HW261110   8.739   0.450   4.846  1.3265 -0.6215 -0.0303
19706SOL     OW61111   5.736   8.639   1.628  0.6973 -0.3553  0.4326
19706SOL    HW161112   5.767   8.698   1.560  0.4986  0.9136  1.4093
19706SOL    HW261113   5.691   8.569   1.580 -1.7699  1.8319 -0.7226
19707SOL     OW61114   2.065   1.538   7.372 -0.5762 -0.2054 -0.1242
19707SOL    HW161115   2.149   1.530   7.417 -1.0275  1.1923  1.0673
19707SOL    HW261116   2.083   1.591   7.295 -0.3879  0.3247  0.2747
19708SOL     OW61117   3.823   7.459   0.510 -0.1184  0.3604 -0.1356
19708SOL    HW161118   3.860   7.480   0.424 -1.2844  0.9999 -0.4982
19708SOL    HW261119   3.757   7.391   0.491 -2.2761  2.3492 -0.1816
19709SOL     OW61120   4.747   0.014   1.345 -0.1116 -0.3177 -0.1987
19709SOL    HW161121   4.751  -0.079   1.324  1.3513 -0.3620  0.1536
19709SOL    HW261122   4.760   0.058   1.262  0.2601 -0.4469 -0.2126
19710SOL     OW61123   7.962   3.170   6.528  0.4946 -0.3115  0.1931
19710SOL    HW161124   7.944   3.143   6.438  3.4125 -0.2884 -0.4727
19710SOL    HW261125   7.912   3.109   6.582 -0.5148 -0.9548 -1.4078
19711SOL     OW61126   8.037   4.927   6.261 -0.3789  0.0259 -0.2380
19711SOL    HW161127   7.962   4.977   6.229 -1.2055  0.2841  1.9888
19711SOL    HW261128   8.106   4.992   6.273 -0.3665  0.0732 -0.5460
19712SOL     OW61129   1.664   7.325   8.549  0.1037 -0.1700 -0.2344
19712SOL    HW161130   1.708   7.274   8.616 -0.2983 -0.3102 -0.0708
19712SOL    HW261131   1.723   7.398   8.531  1.0420 -1.0947 -1.0242
19713SOL     OW61132   8.471   4.856   1.318 -0.2854 -0.0411  0.6205
19713SOL    HW161133   8.430   4.902   1.391 -0.9435 -1.7850  1.3901
19713SOL    HW261134   8.401   4.801   1.282  0.8448 -1.5824  0.6937
19714SOL     OW61135   3.929   0.302   8.059 -0.5794  0.1638 -0.4533
19714SOL    HW161136   3.980   0.291   7.978 -0.7720  0.1962 -0.5783
19714SOL    HW261137   3.972   0.375   8.104 -0.4639  0.1378 -0.5182
19715SOL     OW61138   4.560   3.698   4.073 -0.1909 -0.6266  0.0028
19715SOL    HW161139   4.647   3.677   4.040 -0.5896  0.3781 -1.8240
19715SOL    HW261140   4.499   3.657   4.012 -1.0596 -1.8229  1.5857
19716SOL     OW61141   3.018   7.466   4.375  0.8579  0.1083  0.1370
19716SOL    HW161142   3.099   7.442   4.329  1.6901  1.1899  0.9793
19716SOL    HW261143   3.044   7.472   4.467 -0.2108  0.3540  0.4319
19717SOL     OW61144   3.189   5.479   0.320  0.2506  0.5626 -0.1518
19717SOL    HW161145   3.198   5.483   0.415 -1.0703 -1.4645  0.1303
19717SOL    HW261146   3.132   5.552   0.298 -1.0011 -0.0536  0.8948
19718SOL     OW61147   5.431   4.510   2.048  0.2252 -0.0132  0.1581
19718SOL    HW161148   5.441   4.489   2.141  0.5635 -0.4154  0.0314
19718SOL    HW261149   5.476   4.439   2.002 -0.3798 -0.0840 -0.3299
19719SOL     OW61150   4.393   8.116   2.684  0.2241 -0.3698 -1.0264
19719SOL    HW161151   4.350   8.201   2.674 -0.8340 -0.5712  1.2368
19719SOL    HW261152   4.470   8.133   2.738  0.4043 -0.7327 -1.1626
19720SOL     OW61153   4.565   8.610   6.338 -0.0811  0.1320 -0.6021
19720SOL    HW161154   4.562   8.545   6.408 -0.3042  2.7754  2.0477
19720SOL    HW261155   4.534   8.691   6.379  2.2541  2.4707 -3.0481
19721SOL     OW61156   3.443   1.954   4.229  0.5813  0.1669 -0.1792
19721SOL    HW161157   3.355   1.924   4.254  0.5326  0.0148 -0.5263
19721SOL    HW261158   3.468   2.015   4.299 -0.3332  1.2114 -0.7273
19722SOL     OW61159   6.068   7.762   5.564  0.6598  0.0449 -0.0091
19722SOL    HW161160   6.134   7.764   5.494 -0.0298  2.1385 -0.6748
19722SOL    HW261161   6.001   7.702   5.532  1.0537 -0.1482 -0.4874
19723SOL     OW61162   5.060   2.403   1.146  0.0148 -0.2678 -0.3185
19723SOL    HW161163   4.973   2.423   1.113 -0.2513 -0.4944  0.2225
19723SOL    HW261164   5.112   2.480   1.125 -0.8374  0.7832  1.1796
19724SOL     OW61165   3.515   8.205   2.184  0.1990  0.0410 -0.5452
19724SOL    HW161166   3.545   8.247   2.264 -0.2272  1.1525 -0.9464
19724SOL    HW261167   3.428   8.171   2.205 -0.4729  1.4671 -0.8726
19725SOL     OW61168   8.645   0.461   2.457 -0.3524 -0.4369 -0.4186
19725SOL    HW161169   8.718   0.518   2.478 -0.1648 -1.1270  0.9214
19725SOL    HW261170   8.622   0.483   2.367  2.4351 -1.2052 -1.4089
19726SOL     OW61171   4.151   7.620   6.810  0.1860 -0.1316 -0.2965
19726SOL    HW161172   4.140   7.536   6.854  2.5307 -0.1345  0.4101
19726SOL    HW261173   4.106   7.683   6.867  2.3267 -0.2867  1.7151
19727SOL     OW61174   6.499   0.416   6.060 -0.4938 -0.3424  0.1591
19727SOL    HW161175   6.462   0.504   6.059 -0.3475 -0.1950  2.4320
19727SOL    HW261176   6.593   0.429   6.056 -0.5053 -0.4832 -0.7969
19728SOL     OW61177   0.015   8.661   5.929 -0.7883 -0.4018  0.2788
19728SOL    HW161178  -0.022   8.733   5.981 -2.1771  0.0246 -1.2272
19728SOL    HW261179   0.108   8.681   5.922 -0.8632  0.3516  1.2718
19729SOL     OW61180   5.709   7.258   0.264 -0.4706 -0.3054  0.1433
19729SOL    HW161181   5.754   7.242   0.181  0.6497 -1.7467  0.9666
19729SOL    HW261182   5.755   7.202   0.327 -1.0857  0.9634  1.8013
19730SOL     OW61183   5.712   2.253   1.570  0.4429  0.5175 -0.3848
19730SOL    HW161184   5.688   2.166   1.603  0.2869  0.1502 -1.4406
19730SOL    HW261185   5.645   2.273   1.504  2.2078  0.0689 -2.4039
19731SOL     OW61186   7.454   2.339   3.110  0.3968 -0.3822 -0.0406
19731SOL    HW161187   7.397   2.407   3.074  0.9111 -0.6190 -1.3380
19731SOL    HW261188   7.443   2.264   3.051 -0.1381 -1.4469  1.3412
19732SOL     OW61189   8.020   8.661   3.153 -0.8845  0.0824  0.0603
19732SOL    HW161190   7.989   8.579   3.192  0.7652 -1.3621 -1.4888
19732SOL    HW261191   7.952   8.685   3.090 -1.6443  0.2448  0.9155
19733SOL     OW61192   1.858   5.256   4.379  0.3676 -0.4608 -0.3970
19733SOL    HW161193   1.775   5.292   4.408  0.9720 -0.4802  1.4945
19733SOL    HW261194   1.836   5.203   4.302 -1.2808 -0.1410 -0.1805
19734SOL     OW61195   6.320   7.708   4.408  0.1482 -0.1817 -0.6943
19734SOL    HW161196   6.406   7.669   4.394  1.1446  1.4432  0.6470
19734SOL    HW261197   6.325   7.794   4.368  0.1851  1.0825  1.7993
19735SOL     OW61198   0.989   3.691   1.041 -0.0438  0.1029  0.1751
19735SOL    HW161199   1.062   3.653   1.090  0.5635  1.0126  0.0150
19735SOL    HW261200   0.915   3.633   1.058  0.3045  0.0668  1.6836
19736SOL     OW61201   0.748   2.860   4.079 -0.1693  0.0080  0.2768
19736SOL    HW161202   0.807   2.910   4.136  0.7235 -1.6225  0.8675
19736SOL    HW261203   0.806   2.816   4.018 -0.8692 -0.7433  0.1370
19737SOL     OW61204   4.528   0.504   2.943  0.0206  0.3751  0.2577
19737SOL    HW161205   4.597   0.566   2.970  0.7195 -0.2696 -0.0250
19737SOL    HW261206   4.463   0.510   3.012  0.8683  0.2038  1.0994
19738SOL     OW61207   6.873   0.935   3.042 -0.2850 -0.6521 -0.0917
19738SOL    HW161208   6.780   0.931   3.065 -0.2891 -1.5549 -0.2192
19738SOL    HW261209   6.878   0.999   2.971 -0.5962  0.4843  0.8873
19739SOL     OW61210   4.199   8.347   3.829 -0.3980 -0.0978  0.3109
19739SOL    HW161211   4.208   8.431   3.874  0.4344  0.3308 -0.6016
19739SOL    HW261212   4.280   8.300   3.849 -1.0772 -0.9089  1.2295
19740SOL     OW61213   0.671   3.255   5.017 -0.5994 -0.6628  0.3389
19740SOL    HW161214   0.643   3.346   5.028 -0.5561 -0.2973 -2.0079
19740SOL    HW261215   0.607   3.204   5.067 -1.6522  0.5620  0.3060
19741SOL     OW61216   0.459   2.129   1.359 -0.4487  0.0373 -0.3415
19741SOL    HW161217   0.529   2.081   1.403 -1.9249 -1.8989  0.0295
19741SOL    HW261218   0.444   2.079   1.278 -1.6734  0.1500 -0.1998
19742SOL     OW61219   7.550   5.420   2.136 -0.8144  0.1819 -0.0031
19742SOL    HW161220   7.516   5.509   2.129  0.0009  0.6752  1.8970
19742SOL    HW261221   7.475   5.367   2.163 -0.9567  0.5662  0.3490
19743SOL     OW61222   6.645   6.521   1.097  0.2154 -0.3782  0.4069
19743SOL    HW161223   6.560   6.539   1.055  0.2960 -0.6190  0.1344
19743SOL    HW261224   6.673   6.605   1.132 -0.7146 -0.5190  1.5800
19744SOL     OW61225   6.946   2.357   5.616  0.3808 -0.1620  0.4040
19744SOL    HW161226   6.974   2.363   5.524  1.0234 -1.3240  0.5030
19744SOL    HW261227   6.992   2.280   5.650  1.5414  1.2745  2.2175
19745SOL     OW61228   0.941   0.635   3.283 -0.5287  0.5333  1.1350
19745SOL    HW161229   0.863   0.591   3.316 -1.1876 -0.0790 -1.0496
19745SOL    HW261230   0.918   0.662   3.194  1.5741  0.7927  0.6050
19746SOL     OW61231   5.704   6.375   8.784 -0.2467  0.7464  0.3266
19746SOL    HW161232   5.785   6.410   8.747 -0.3841 -0.4052 -1.1507
19746SOL    HW261233   5.654   6.345   8.708 -1.6851  0.6357  1.2791
19747SOL     OW61234   1.174   1.812   7.153  0.5985 -0.5990  0.1598
19747SOL    HW161235   1.202   1.721   7.147 -0.8435 -1.1205  0.8320
19747SOL    HW261236   1.205   1.852   7.071  0.4118 -1.9290 -0.5915
19748SOL     OW61237   7.634   6.765   5.397  0.2160  0.6670 -0.2750
19748SOL    HW161238   7.677   6.703   5.339 -0.2135 -0.0023  0.1062
19748SOL    HW261239   7.656   6.735   5.485 -1.0353  0.2651 -0.0659
19749SOL     OW61240   5.570   3.062   5.470  0.0099  0.4210  0.2046
19749SOL    HW161241   5.510   3.087   5.399 -0.6174  1.1765  0.9778
19749SOL    HW261242   5.567   2.966   5.471  0.1931  0.3877 -0.9180
19750SOL     OW61243   3.024   4.144   5.788 -0.3218 -0.5260  0.2736
19750SOL    HW161244   3.106   4.139   5.739 -0.6266 -0.9005 -0.2097
19750SOL    HW261245   3.021   4.062   5.837 -0.5370 -0.6344  0.0791
19751SOL     OW61246   7.841   2.144   6.352  0.2916 -0.2295 -0.5160
19751SOL    HW161247   7.832   2.059   6.395 -1.2764  0.2673  0.2081
19751SOL    HW261248   7.763   2.151   6.297  0.3758  0.7688 -0.5126
19752SOL     OW61249   5.534   7.921   7.700  0.3382  0.2397 -0.0048
19752SOL    HW161250   5.491   7.950   7.780  2.0076 -0.1642  1.0850
19752SOL    HW261251   5.620   7.964   7.701  0.2297  0.5853 -1.8185
19753SOL     OW61252   3.759   0.720   2.174  0.5068  0.5041 -0.0410
19753SOL    HW161253   3.843   0.750   2.140  1.4480 -0.8375  0.9823
19753SOL    HW261254   3.747   0.770   2.255  0.2606  0.7573 -0.2304
19754SOL     OW61255   2.681   2.766   3.067 -0.5849 -0.0019  0.0509
19754SOL    HW161256   2.606   2.721   3.107  0.0422  0.6421  2.0848
19754SOL    HW261257   2.734   2.794   3.142  1.8947 -0.7635 -1.3100
19755SOL     OW61258   6.600   4.308   3.102  0.2540  0.2791  0.1014
19755SOL    HW161259   6.655   4.382   3.130  2.4578 -1.2759  0.1533
19755SOL    HW261260   6.634   4.284   3.016 -0.6036 -0.5165 -0.0328
19756SOL     OW61261   7.367   5.700   1.912  0.2872 -0.8574 -0.0322
19756SOL    HW161262   7.315   5.634   1.866  1.0707 -0.7246 -1.1555
19756SOL    HW261263   7.321   5.782   1.894  1.4740 -0.5542 -2.0903
19757SOL     OW61264   3.703   3.319   7.878 -0.1235  0.4673 -0.2549
19757SOL    HW161265   3.706   3.259   7.804 -0.6156  0.9861 -0.7101
19757SOL    HW261266   3.616   3.360   7.872 -0.8153 -0.6072  1.5260
19758SOL     OW61267   3.148   3.851   7.626  0.0743  0.0763 -0.0160
19758SOL    HW161268   3.110   3.779   7.676 -1.4303  0.6983 -0.2283
19758SOL    HW261269   3.172   3.813   7.542  0.8276 -0.5380  0.4656
19759SOL     OW61270   3.073   4.925   5.304  0.6968  0.2744 -0.1289
19759SOL    HW161271   3.016   4.850   5.291 -1.8003  1.7388  1.6340
19759SOL    HW261272   3.136   4.897   5.370  0.4452 -0.5777 -0.2496
19760SOL     OW61273   8.011   1.078   4.830  0.9125 -0.0020 -0.2193
19760SOL    HW161274   8.078   1.027   4.875  0.3561 -1.3363 -0.8580
19760SOL    HW261275   7.940   1.087   4.894  1.0996  0.1474 -0.0336
19761SOL     OW61276   4.131   6.665   1.784 -0.2379  0.1240 -0.1505
19761SOL    HW161277   4.115   6.743   1.730 -2.1508 -0.6331 -0.7476
19761SOL    HW261278   4.102   6.689   1.871 -1.6108 -0.1429 -0.5091
19762SOL     OW61279   8.724   0.164   4.235  0.2790  0.1224  0.1699
19762SOL    HW161280   8.777   0.241   4.255 -0.7444  0.2525  2.8000
19762SOL    HW261281   8.661   0.194   4.169  1.4092  0.8165 -0.6215
19763SOL     OW61282   3.772   2.665   6.760 -0.0156 -0.2345  0.2575
19763SOL    HW161283   3.793   2.700   6.846 -0.8671 -1.0382  0.8118
19763SOL    HW261284   3.698   2.717   6.729 -0.3267 -0.5602  0.4395
19764SOL     OW61285   3.529   7.631   2.030 -0.5530 -0.4465  0.0071
19764SOL    HW161286   3.580   7.606   2.107  0.5954 -0.9233 -0.8789
19764SOL    HW261287   3.565   7.716   2.005  1.4235 -1.7204 -1.8904
19765SOL     OW61288   2.771   4.664   3.361 -0.3213 -0.3571 -0.4425
19765SOL    HW161289   2.792   4.675   3.268  1.3287  1.0374  0.0243
19765SOL    HW261290   2.851   4.692   3.407 -1.0036 -1.2319  1.4034
19766SOL     OW61291   4.346   2.322   5.408  0.1260 -0.6833 -0.1731
19766SOL    HW161292   4.394   2.258   5.355  3.3083  1.1237  0.3189
19766SOL    HW261293   4.366   2.297   5.499 -0.0755 -0.0279  0.0533
19767SOL     OW61294   2.670   8.731   4.880  0.4182 -0.2799  0.0982
19767SOL    HW161295   2.627   8.751   4.797  0.7606 -1.1046 -0.2827
19767SOL    HW261296   2.763   8.727   4.859  0.3046 -5.1659 -0.5780
19768SOL     OW61297   0.473   7.524   0.687 -0.2975 -0.0428  0.5080
19768SOL    HW161298   0.557   7.568   0.700 -1.0207  1.8863 -0.8744
19768SOL    HW261299   0.431   7.525   0.773  0.6423 -0.0287  0.9714
19769SOL     OW61300   7.176   2.025   4.390  0.0657  0.4197  0.0565
19769SOL    HW161301   7.153   2.116   4.409  0.9171  0.7544 -0.4688
19769SOL    HW261302   7.129   2.005   4.309 -2.3514 -0.5265  1.5842
19770SOL     OW61303   0.483   6.945   4.676 -0.1477  0.6386 -0.5432
19770SOL    HW161304   0.441   7.000   4.609 -1.1938  1.2471  0.5680
19770SOL    HW261305   0.568   6.986   4.691 -0.4710  1.3194 -0.5314
19771SOL     OW61306   8.678   1.382   6.226  0.0389  0.7036  0.7630
19771SOL    HW161307   8.767   1.389   6.260  0.1043  0.3908  0.6573
19771SOL    HW261308   8.629   1.451   6.272  0.1847  0.4557  1.2932
19772SOL     OW61309   8.710   7.168   5.418  0.1428 -0.1036 -0.5186
19772SOL    HW161310   8.731   7.075   5.418 -0.3927 -0.2280 -0.2723
19772SOL    HW261311   8.655   7.180   5.496  2.4977  0.9383  1.1031
19773SOL     OW61312   5.200   5.875   2.959 -0.1811  0.3552 -0.3439
19773SOL    HW161313   5.128   5.865   3.022 -0.1963  0.9120 -0.2719
19773SOL    HW261314   5.159   5.910   2.881  0.1648  1.6821  0.0470
19774SOL     OW61315   7.237   7.096   5.715 -0.5104 -0.1698 -0.1671
19774SOL    HW161316   7.237   7.145   5.798 -2.0251  0.4001 -0.4612
19774SOL    HW261317   7.314   7.040   5.720  0.6776  1.4389  0.6795
19775SOL     OW61318   0.032   5.025   8.314 -0.3054 -0.1859  0.1926
19775SOL    HW161319   0.123   5.037   8.343 -0.2095 -2.0195  0.8041
19775SOL    HW261320  -0.013   5.104   8.344  0.4737 -0.5810  2.7114
19776SOL     OW61321   7.678   2.560   7.246  0.1985  0.2393 -0.2444
19776SOL    HW161322   7.660   2.625   7.178 -0.6595  2.0026  1.5387
19776SOL    HW261323   7.605   2.570   7.308 -1.1973 -3.9904 -0.8758
19777SOL     OW61324   1.492   5.207   2.900 -0.0420  0.2240 -0.4038
19777SOL    HW161325   1.483   5.200   2.805 -1.2220  0.4338 -0.3277
19777SOL    HW261326   1.457   5.124   2.933 -0.6772  0.6005 -0.1132
19778SOL     OW61327   4.303   4.100   0.377 -0.0372  0.2969 -0.2362
19778SOL    HW161328   4.222   4.125   0.332 -1.0903  0.9516  1.9167
19778SOL    HW261329   4.370   4.156   0.337 -0.8880  0.7602 -1.0709
19779SOL     OW61330   5.951   7.200   8.587  0.0082 -0.0883  0.4923
19779SOL    HW161331   5.946   7.237   8.675  0.1701 -0.1767  0.5396
19779SOL    HW261332   5.860   7.192   8.559 -0.1219 -1.5400  1.2608
19780SOL     OW61333   4.103   4.107   2.320 -0.1185  0.6265  0.0588
19780SOL    HW161334   4.021   4.060   2.307  0.4908 -0.4701  0.1078
19780SOL    HW261335   4.113   4.110   2.416 -0.8984  2.2003  0.1225
19781SOL     OW61336   0.810   2.615   8.836  0.2028 -0.4626  0.5716
19781SOL    HW161337   0.857   2.559   8.775 -0.0618  0.3832 -0.4508
19781SOL    HW261338   0.731   2.641   8.788 -0.1132  0.0498  1.3541
19782SOL     OW61339   2.116   2.230   0.447  0.4099  0.3155 -0.1969
19782SOL    HW161340   2.151   2.318   0.458  0.2771  0.4476 -0.7854
19782SOL    HW261341   2.083   2.229   0.357  0.1229 -0.2323 -0.0863
19783SOL     OW61342   2.242   8.624   4.994 -0.8983 -0.2279  0.0269
19783SOL    HW161343   2.320   8.585   5.034 -0.5379 -0.0776 -0.5064
19783SOL    HW261344   2.271   8.648   4.906 -1.8631 -1.1519 -0.5514
19784SOL     OW61345   7.522   1.558   0.865 -0.3719  0.1293 -0.4969
19784SOL    HW161346   7.606   1.516   0.850 -0.3318  0.6914 -2.0352
19784SOL    HW261347   7.467   1.489   0.904  0.7840 -0.2188  0.5845
19785SOL     OW61348   5.091   1.345   0.855  0.0872 -0.4063 -0.0207
19785SOL    HW161349   5.016   1.338   0.795  0.9640 -0.1561 -1.1904
19785SOL    HW261350   5.123   1.255   0.862 -0.7295 -0.6277  1.0460
19786SOL     OW61351   1.067   0.161   1.477  0.5526  0.2758 -0.0447
19786SOL    HW161352   1.128   0.091   1.497 -0.1143 -0.0267  1.0735
19786SOL    HW261353   1.018   0.131   1.400  0.8701 -0.0844 -0.1029
19787SOL     OW61354   5.878   5.948   3.393  0.1280  0.4139  0.7522
19787SOL    HW161355   5.855   5.865   3.435  0.8907  0.2470  0.8602
19787SOL    HW261356   5.804   6.006   3.413 -0.3670 -0.2055  0.7604
19788SOL     OW61357   3.863   5.695   3.925 -0.0264  0.4075  0.1057
19788SOL    HW161358   3.892   5.643   4.000  1.6044 -0.1727 -0.8822
19788SOL    HW261359   3.820   5.771   3.964  1.6709  0.6202  1.6571
19789SOL     OW61360   1.126   8.516   8.305  0.0056  0.2793  0.0384
19789SOL    HW161361   1.163   8.595   8.346  1.6908 -0.5779  0.2781
19789SOL    HW261362   1.163   8.516   8.217  0.1922 -0.3422  0.1154
19790SOL     OW61363   5.955   1.844   5.421 -0.1762  0.1456 -0.0446
19790SOL    HW161364   5.884   1.908   5.431 -0.5856 -0.5137  1.5314
19790SOL    HW261365   5.917   1.776   5.365  0.0054  0.8597 -1.0833
19791SOL     OW61366   2.177   1.124   7.753  0.3581 -0.1399 -0.2559
19791SOL    HW161367   2.179   1.151   7.845 -0.3181  0.8759 -0.5168
19791SOL    HW261368   2.095   1.076   7.745  0.6875 -0.7188 -0.2107
19792SOL     OW61369   7.860   2.636   5.629  0.3956 -0.5237  0.2020
19792SOL    HW161370   7.924   2.665   5.564 -0.2731  0.2158 -0.1457
19792SOL    HW261371   7.800   2.710   5.637  0.8768 -0.2815  2.2282
19793SOL     OW61372   4.527   6.051   6.644 -0.4456 -0.4988 -0.2551
19793SOL    HW161373   4.505   6.088   6.729 -0.0734 -0.6801 -0.0733
19793SOL    HW261374   4.444   6.048   6.596 -0.6543 -0.3831  0.0964
19794SOL     OW61375   1.895   4.626   4.590 -0.0491 -0.7428  0.5239
19794SOL    HW161376   1.949   4.604   4.514 -0.3974  3.3355 -1.1666
19794SOL    HW261377   1.810   4.649   4.553 -1.0803 -1.2568  2.4808
19795SOL     OW61378   5.079   8.787   5.496  0.0644  0.1889 -0.2870
19795SOL    HW161379   5.019   8.849   5.455 -1.6306 -0.2021  1.4584
19795SOL    HW261380   5.161   8.835   5.506 -0.1947  1.0351 -1.9069
19796SOL     OW61381   4.637   5.462   8.823  0.4872 -0.5121 -0.3387
19796SOL    HW161382   4.627   5.384   8.878 -0.2596 -0.6318 -0.6369
19796SOL    HW261383   4.667   5.530   8.884 -0.3642 -0.6324  0.2305
19797SOL     OW61384   3.347   6.718   1.577 -0.2754 -0.4988 -0.3888
19797SOL    HW161385   3.406   6.752   1.510  0.3772  1.0585  0.9238
19797SOL    HW261386   3.282   6.787   1.590 -0.1795 -0.6162  0.8184
19798SOL     OW61387   3.772   5.417   6.764  0.0510 -0.4189  0.3947
19798SOL    HW161388   3.758   5.390   6.855  0.5071 -2.3914 -0.0765
19798SOL    HW261389   3.705   5.484   6.748 -0.6647 -0.7442  1.8770
19799SOL     OW61390   3.231   0.633   1.085  0.8101 -0.5903 -0.5899
19799SOL    HW161391   3.136   0.642   1.077  0.5995 -1.4231  0.6617
19799SOL    HW261392   3.262   0.625   0.995 -0.0153  2.0195 -1.1849
19800SOL     OW61393   6.485   7.115   2.358  0.2097  0.4031 -0.0432
19800SOL    HW161394   6.486   7.035   2.305 -1.2662 -1.0131  1.9030
19800SOL    HW261395   6.392   7.137   2.365  0.3548  0.5341  1.8837
19801SOL     OW61396   3.113   2.158   2.801  0.1678  0.3414 -0.8878
19801SOL    HW161397   3.113   2.128   2.892 -1.6811 -0.2061 -1.0220
19801SOL    HW261398   3.103   2.078   2.750  0.0594  0.7429 -1.5060
19802SOL     OW61399   6.054   1.345   2.380 -0.3999 -0.3240  0.0422
19802SOL    HW161400   5.962   1.367   2.390 -0.5311 -0.0913 -1.4067
19802SOL    HW261401   6.054   1.273   2.317  0.4217 -0.0446 -0.2884
19803SOL     OW61402   7.899   3.495   7.308 -0.2985  0.1832  0.1304
19803SOL    HW161403   7.847   3.574   7.295 -0.2060  0.1322 -0.6541
19803SOL    HW261404   7.980   3.526   7.350 -2.1291 -0.1289  4.3116
19804SOL     OW61405   2.962   2.458   6.882  0.1148 -0.8078  0.2166
19804SOL    HW161406   2.990   2.462   6.791  0.3423 -4.1354  0.0091
19804SOL    HW261407   3.027   2.511   6.929 -1.2050  2.7853 -1.6358
19805SOL     OW61408   4.553   6.621   0.014  0.2007  0.1972 -0.0569
19805SOL    HW161409   4.604   6.683   0.067  0.7022 -0.0574 -0.2308
19805SOL    HW261410   4.574   6.645  -0.077  0.5753 -0.3690 -0.1212
19806SOL     OW61411   2.376   4.944   6.737  0.2539 -0.3740  0.0283
19806SOL    HW161412   2.417   5.023   6.702  0.1863 -0.8488 -1.1744
19806SOL    HW261413   2.378   4.955   6.832  0.3445  1.0200 -0.1215
19807SOL     OW61414   5.235   7.993   6.378  0.0351 -0.1081 -0.1418
19807SOL    HW161415   5.185   8.062   6.420 -1.7084 -1.2568 -0.2503
19807SOL    HW261416   5.169   7.937   6.338  1.4909 -0.8134 -1.6606
19808SOL     OW61417   5.760   2.276   2.667  0.9053 -0.3525 -0.1383
19808SOL    HW161418   5.847   2.292   2.631  1.4444 -0.6105  1.0019
19808SOL    HW261419   5.732   2.361   2.701  0.3320 -0.0744 -1.2622
19809SOL     OW61420   6.343   2.695   7.356 -0.2715 -0.2088 -0.1006
19809SOL    HW161421   6.375   2.726   7.271 -1.9460  0.7646 -0.4101
19809SOL    HW261422   6.354   2.769   7.415 -0.9957 -0.1969  0.0293
19810SOL     OW61423   1.167   3.259   3.347 -0.0910  0.4637  0.5106
19810SOL    HW161424   1.138   3.329   3.406 -0.0038  1.0431 -0.1174
19810SOL    HW261425   1.087   3.230   3.303 -0.0668  0.4592  0.4691
19811SOL     OW61426   3.751   8.864   8.392  0.1319 -0.0029 -0.1630
19811SOL    HW161427   3.666   8.905   8.405  0.5991  1.6896 -2.0370
19811SOL    HW261428   3.776   8.833   8.480 -1.5338  1.1766  0.7821
19812SOL     OW61429   3.252   0.395   0.097 -0.1578 -0.7629 -0.0382
19812SOL    HW161430   3.267   0.490   0.093 -0.3633 -0.4706  3.1141
19812SOL    HW261431   3.227   0.371   0.008  0.0247  2.1132 -0.9872
19813SOL     OW61432   6.791   4.895   1.523 -0.4762 -0.1138  0.3834
19813SOL    HW161433   6.779   4.870   1.615 -0.0344 -0.4301  0.3590
19813SOL    HW261434   6.702   4.899   1.488 -1.0052  3.5230  1.7058
19814SOL     OW61435   2.021   3.175   7.500  0.0117 -0.0628  0.2099
19814SOL    HW161436   2.000   3.221   7.582 -0.2441 -0.0432  0.1341
19814SOL    HW261437   2.053   3.090   7.529 -0.3804 -0.1733  0.3205
19815SOL     OW61438   5.255   3.123   8.626  0.3292 -0.4043 -0.3966
19815SOL    HW161439   5.167   3.091   8.604 -0.2917  0.8914  0.0986
19815SOL    HW261440   5.312   3.085   8.559 -0.8390 -0.0203 -1.6495
19816SOL     OW61441   4.968   5.203   5.611  0.1311  0.4025 -0.3531
19816SOL    HW161442   5.012   5.188   5.695 -2.2962  1.7337  1.2865
19816SOL    HW261443   5.034   5.246   5.557  1.6026  0.0142  1.0618
19817SOL     OW61444   1.728   5.069   4.988 -0.8417 -0.0317  0.3369
19817SOL    HW161445   1.692   5.042   5.072  0.4968 -1.4931  0.4881
19817SOL    HW261446   1.753   5.161   5.002  0.1634 -0.4847  1.8616
19818SOL     OW61447   8.605   6.205   7.591  0.6184 -0.0166 -0.1482
19818SOL    HW161448   8.636   6.174   7.506 -2.7820  0.2472 -1.6254
19818SOL    HW261449   8.556   6.132   7.628  0.0295  0.6841  0.4868
19819SOL     OW61450   8.189   8.746   3.453 -0.6087 -0.1816  0.3850
19819SOL    HW161451   8.268   8.791   3.485 -0.0102 -0.4688 -0.6526
19819SOL    HW261452   8.193   8.660   3.495 -0.0608 -0.3987 -0.0942
19820SOL     OW61453   6.068   5.783   6.308 -0.0762 -0.1733  0.5203
19820SOL    HW161454   6.079   5.826   6.224  0.9638  1.0848  1.2486
19820SOL    HW261455   5.989   5.822   6.345 -0.9056 -1.2044 -0.1262
19821SOL     OW61456   7.075   6.629   6.559 -0.8084 -0.2271 -0.0107
19821SOL    HW161457   7.092   6.576   6.481 -1.9376 -1.7684  0.7435
19821SOL    HW261458   6.979   6.635   6.563 -0.9420 -2.2789  2.5398
19822SOL     OW61459   8.200   0.194   2.291  0.3766  0.3346 -0.3114
19822SOL    HW161460   8.222   0.284   2.313  1.4520 -0.2641  1.2590
19822SOL    HW261461   8.111   0.182   2.324  0.1824  0.8347 -0.6340
19823SOL     OW61462   3.763   3.330   8.660  0.2224  0.1875 -0.3585
19823SOL    HW161463   3.848   3.331   8.616 -0.3734 -0.4217 -1.5621
19823SOL    HW261464   3.699   3.347   8.591 -0.5990  1.7639  0.7021
19824SOL     OW61465   2.987   3.518   3.451 -0.2530  0.1715  0.2067
19824SOL    HW161466   2.923   3.457   3.415 -1.6972  0.5886  1.9249
19824SOL    HW261467   3.044   3.464   3.506 -0.2827  0.0850  0.1532
19825SOL     OW61468   7.651   4.790   1.676  0.4884  0.2046  0.9177
19825SOL    HW161469   7.677   4.878   1.705 -0.6913  1.3023 -1.1286
19825SOL    HW261470   7.566   4.776   1.718 -0.6234  1.2627 -0.8552
19826SOL     OW61471   1.536   7.936   6.673  0.2093  0.0540 -0.0513
19826SOL    HW161472   1.524   7.844   6.649  1.7371 -0.3142  0.4613
19826SOL    HW261473   1.631   7.946   6.682  0.1082  1.7946 -0.4909
19827SOL     OW61474   2.563   1.472   7.237  0.1736  0.1592  0.2750
19827SOL    HW161475   2.534   1.454   7.327 -0.3611 -1.0463 -0.1133
19827SOL    HW261476   2.487   1.514   7.196 -0.2018 -0.8598 -0.0873
19828SOL     OW61477   7.847   2.183   0.634  0.1302 -0.1431  0.2555
19828SOL    HW161478   7.785   2.254   0.651 -0.6370 -0.9587  0.9427
19828SOL    HW261479   7.822   2.114   0.695  1.6732 -0.5284  0.4956
19829SOL     OW61480   1.853   6.373   8.475 -0.4629  0.5277  0.8623
19829SOL    HW161481   1.925   6.310   8.475  1.5019  2.6238  1.5182
19829SOL    HW261482   1.778   6.324   8.442  1.0155 -2.0244  1.0282
19830SOL     OW61483   3.447   1.682   1.371 -0.0743  0.2288  0.1271
19830SOL    HW161484   3.503   1.637   1.434 -1.5505 -1.8033  0.0689
19830SOL    HW261485   3.450   1.628   1.293 -1.2555  0.6640 -0.2391
19831SOL     OW61486   8.045   3.395   4.387 -0.0316 -0.0250 -0.0717
19831SOL    HW161487   8.025   3.311   4.345  1.4329 -0.3163 -0.2267
19831SOL    HW261488   8.099   3.372   4.462 -1.5921  0.6081  1.3142
19832SOL     OW61489   8.224   8.861   2.096 -0.4037  0.5000 -0.3291
19832SOL    HW161490   8.196   8.894   2.010 -0.4203 -0.4874 -0.7133
19832SOL    HW261491   8.228   8.939   2.151  0.2919  1.2582 -1.4105
19833SOL     OW61492   7.960   6.723   4.356  0.2611 -0.1907 -0.2622
19833SOL    HW161493   7.982   6.810   4.389  2.4658 -1.4477  2.0165
19833SOL    HW261494   7.913   6.682   4.429  0.7363 -1.4374 -0.6401
19834SOL     OW61495   7.710   3.234   4.111 -0.2873  0.4340 -0.0860
19834SOL    HW161496   7.641   3.187   4.064  0.1905 -0.2387 -0.1288
19834SOL    HW261497   7.708   3.322   4.074  0.9100 -0.3860 -2.3093
19835SOL     OW61498   8.685   0.074   8.061  0.5314  0.0337  0.5371
19835SOL    HW161499   8.650   0.013   7.996  0.1862 -0.6891  1.3755
19835SOL    HW261500   8.642   0.157   8.042 -1.3364 -0.7158  1.2534
19836SOL     OW61501   1.075   8.700   6.021 -0.3625 -0.2596  0.1855
19836SOL    HW161502   1.007   8.767   6.009  0.7798  0.6904 -1.3617
19836SOL    HW261503   1.144   8.744   6.070  1.0562  0.2636 -2.1382
19837SOL     OW61504   4.689   3.098   4.079  0.2139  0.0421 -0.2161
19837SOL    HW161505   4.652   3.160   4.142 -1.1082 -0.1174 -0.7897
19837SOL    HW261506   4.656   3.013   4.107 -0.6268 -0.0020 -1.2502
19838SOL     OW61507   1.400   7.996   8.148 -0.0681 -0.2096  0.1891
19838SOL    HW161508   1.366   7.907   8.145 -1.1481  0.1995 -0.0291
19838SOL    HW261509   1.365   8.038   8.070 -1.6580  1.1240  1.5293
19839SOL     OW61510   1.539   5.778   7.506  0.1829  0.2304  0.8237
19839SOL    HW161511   1.617   5.792   7.560 -0.0906  3.4925  0.5910
19839SOL    HW261512   1.545   5.846   7.438 -2.3113 -0.1607  0.1346
19840SOL     OW61513   0.601   0.299   0.197 -0.3118 -0.3712  0.2797
19840SOL    HW161514   0.550   0.302   0.116  0.1513  3.2202 -0.0262
19840SOL    HW261515   0.538   0.316   0.266 -0.1737  0.0219  0.3108
19841SOL     OW61516   8.639   8.648   8.131 -0.6925 -0.6914 -0.1892
19841SOL    HW161517   8.672   8.613   8.214 -0.6749  0.2530  0.2207
19841SOL    HW261518   8.699   8.614   8.065  1.1951  0.9683  0.5344
19842SOL     OW61519   2.203   8.304   0.816 -0.8978  0.3116  0.3064
19842SOL    HW161520   2.156   8.387   0.808 -0.3949  0.8563  2.4451
19842SOL    HW261521   2.295   8.329   0.822 -0.8437 -0.2159  2.5635
19843SOL     OW61522   5.875   8.252   6.558 -0.1916 -0.0891  0.3976
19843SOL    HW161523   5.919   8.171   6.585 -0.8458 -0.8553 -0.7442
19843SOL    HW261524   5.784   8.227   6.547 -0.2082  0.5090 -1.0782
19844SOL     OW61525   8.541   3.785   8.047  0.2614  0.9251 -0.2752
19844SOL    HW161526   8.474   3.751   8.107 -0.1665  0.4637 -1.0131
19844SOL    HW261527   8.552   3.717   7.982  1.2654  1.1197 -0.3128
19845SOL     OW61528   1.091   5.436   1.951  0.0413  0.1294  0.2522
19845SOL    HW161529   1.033   5.361   1.966  0.8990 -0.8780 -1.1564
19845SOL    HW261530   1.099   5.441   1.856  1.9113  0.4975  0.3948
19846SOL     OW61531   7.136   3.422   6.541  0.0328 -0.7234  0.5828
19846SOL    HW161532   7.042   3.411   6.550 -0.0679 -1.0607 -0.6764
19846SOL    HW261533   7.147   3.482   6.468  0.7927 -0.6944  0.7082
19847SOL     OW61534   2.297   8.790   6.273 -0.1442 -0.4388  0.3278
19847SOL    HW161535   2.368   8.831   6.324  0.6733 -1.1507 -0.2038
19847SOL    HW261536   2.320   8.697   6.272 -1.6788 -0.8506  1.0538
19848SOL     OW61537   3.205   8.251   2.737  0.7159  0.2232  0.6385
19848SOL    HW161538   3.171   8.167   2.767 -0.1336 -0.3119 -1.6194
19848SOL    HW261539   3.155   8.316   2.785 -1.1997 -0.5886 -0.1731
19849SOL     OW61540   1.395   2.595   0.676  0.4741  0.6707  0.0677
19849SOL    HW161541   1.372   2.684   0.650  1.8887  0.8675 -0.6095
19849SOL    HW261542   1.469   2.606   0.735  0.0219 -0.0172  0.7815
19850SOL     OW61543   5.872   1.264   5.125  0.5627 -0.2176 -0.5108
19850SOL    HW161544   5.966   1.255   5.138  0.4319 -0.1674  0.5129
19850SOL    HW261545   5.845   1.333   5.185 -0.6691 -2.5969  1.9032
19851SOL     OW61546   1.485   3.856   4.901  0.2368  0.1935  0.0695
19851SOL    HW161547   1.424   3.795   4.858 -0.0213  0.3006  0.2800
19851SOL    HW261548   1.485   3.933   4.844 -1.0511  0.8242  0.8853
19852SOL     OW61549   6.122   1.002   6.614  0.2685  0.1667 -0.2954
19852SOL    HW161550   6.143   0.914   6.644  1.8098 -0.0653 -1.8646
19852SOL    HW261551   6.143   1.001   6.520  0.3986  2.2147 -0.3400
19853SOL     OW61552   2.748   3.993   3.118 -0.6835 -0.5400  0.4981
19853SOL    HW161553   2.730   4.020   3.208  1.2699 -0.1974  0.8329
19853SOL    HW261554   2.664   4.001   3.073 -1.6025 -0.2938  2.1721
19854SOL     OW61555   1.160   2.978   0.989  0.4884  0.0022  0.2540
19854SOL    HW161556   1.222   3.006   0.921  0.2299 -0.0285  0.0027
19854SOL    HW261557   1.196   2.895   1.021 -0.2162 -0.8164 -0.9682
19855SOL     OW61558   0.507   6.036   3.600  0.2118 -0.2075  0.2536
19855SOL    HW161559   0.452   6.113   3.615  2.4348  1.4365  0.4966
19855SOL    HW261560   0.468   5.993   3.524 -1.3301  0.9033  0.3672
19856SOL     OW61561   7.643   8.125   5.611  0.0585  0.0899  0.1898
19856SOL    HW161562   7.592   8.204   5.592  1.0217  0.7469  0.2458
19856SOL    HW261563   7.594   8.054   5.568 -0.1456  0.9019 -0.9921
19857SOL     OW61564   8.879   2.498   8.502 -0.2920 -0.1978  0.0877
19857SOL    HW161565   8.941   2.561   8.467  1.5703 -1.1405  1.4513
19857SOL    HW261566   8.842   2.541   8.579 -1.1892  0.2872 -0.6072
19858SOL     OW61567   4.803   2.083   6.059  0.0144 -0.5228 -0.2060
19858SOL    HW161568   4.765   2.048   5.979 -0.3445 -0.5520 -0.0262
19858SOL    HW261569   4.805   2.178   6.045 -1.4590 -0.3841  0.3360
19859SOL     OW61570   2.515   4.486   3.018 -0.0622  0.1998 -0.3887
19859SOL    HW161571   2.591   4.470   2.963 -0.0768  1.6485 -0.8940
19859SOL    HW261572   2.451   4.527   2.959 -1.6613 -1.8900 -0.2225
19860SOL     OW61573   0.144   1.432   8.515 -0.1495 -0.0028  0.3248
19860SOL    HW161574   0.109   1.468   8.597  1.8238  1.0504  0.7592
19860SOL    HW261575   0.070   1.434   8.455 -2.1531 -2.3588  2.4687
19861SOL     OW61576   8.595   8.716   0.162 -0.2208 -0.2852  0.2605
19861SOL    HW161577   8.523   8.754   0.212 -1.5326 -1.8365 -0.3603
19861SOL    HW261578   8.562   8.631   0.133  1.8957 -1.0842 -0.0039
19862SOL     OW61579   8.773   7.348   5.226 -0.2531 -0.1670 -0.3797
19862SOL    HW161580   8.734   7.293   5.158 -1.2927 -0.0846  0.1252
19862SOL    HW261581   8.763   7.297   5.307 -1.3405  0.7787  0.1179
19863SOL     OW61582   0.236   0.279   5.956  0.0441 -0.4155 -0.8888
19863SOL    HW161583   0.230   0.262   6.050 -0.7041  0.3401 -0.7859
19863SOL    HW261584   0.273   0.199   5.920  3.5145  0.3987  0.4269
19864SOL     OW61585   3.926   8.325   3.243  0.0217 -0.5778 -0.7816
19864SOL    HW161586   3.900   8.415   3.222 -1.3412 -1.1824 -1.8449
19864SOL    HW261587   3.845   8.284   3.274  0.8799 -1.1502  0.7993
19865SOL     OW61588   0.802   6.352   4.766  0.4228  0.1732  0.0788
19865SOL    HW161589   0.873   6.401   4.727 -0.4737  1.4187 -0.0499
19865SOL    HW261590   0.738   6.343   4.696  0.4264 -0.9035  0.1981
19866SOL     OW61591   1.465   4.941   2.985 -0.2767  0.1898 -0.2456
19866SOL    HW161592   1.421   4.873   2.933 -0.9618  1.3765 -1.2842
19866SOL    HW261593   1.555   4.911   2.993 -0.6456 -1.0119 -0.3583
19867SOL     OW61594   6.758   4.857   5.515 -0.2576 -0.4418  0.2432
19867SOL    HW161595   6.756   4.933   5.573 -0.3521 -0.7966  0.7098
19867SOL    HW261596   6.851   4.840   5.500 -0.2304  0.7961 -1.2465
19868SOL     OW61597   8.655   0.458   2.123 -0.2496  0.0055  0.4250
19868SOL    HW161598   8.576   0.457   2.069 -0.4089  2.6155  0.4826
19868SOL    HW261599   8.705   0.382   2.094 -2.3796 -1.2559 -0.1818
19869SOL     OW61600   6.649   4.330   4.921  0.3466  0.5612 -0.3389
19869SOL    HW161601   6.729   4.279   4.933 -0.3632 -0.8075 -1.1514
19869SOL    HW261602   6.616   4.345   5.010  0.7316 -0.1329 -0.0784
19870SOL     OW61603   7.319   7.010   2.527 -0.0795  0.2188  0.4198
19870SOL    HW161604   7.348   6.931   2.481 -2.3178  0.1708 -1.0642
19870SOL    HW261605   7.307   6.981   2.618  1.3394 -0.5262  0.3958
19871SOL     OW61606   6.979   3.693   4.707  0.0056 -0.2238 -0.1477
19871SOL    HW161607   6.988   3.773   4.759 -0.4205 -0.4686  0.3085
19871SOL    HW261608   6.997   3.721   4.617  3.4368 -0.2674  0.3935
19872SOL     OW61609   7.673   0.722   5.921  0.4442 -0.1876 -0.0014
19872SOL    HW161610   7.761   0.759   5.915  0.2460  0.0813 -2.1871
19872SOL    HW261611   7.616   0.792   5.890 -0.4254 -0.7405  0.3251
19873SOL     OW61612   1.654   0.534   4.185 -0.0511  0.4288  0.0990
19873SOL    HW161613   1.654   0.592   4.261 -0.2209 -3.3597  3.3547
19873SOL    HW261614   1.747   0.515   4.170 -0.0231  1.1005 -0.6835
19874SOL     OW61615   4.552   2.008   2.090 -0.5546  0.2225  0.1459
19874SOL    HW161616   4.597   1.924   2.100 -2.5145 -0.8880  0.1446
19874SOL    HW261617   4.532   2.035   2.179 -2.0203 -0.5586  0.0908
19875SOL     OW61618   6.389   2.039   5.139 -0.2613  0.0793 -0.2820
19875SOL    HW161619   6.342   2.080   5.067 -1.1779 -0.1487  0.1671
19875SOL    HW261620   6.410   1.951   5.108  0.4597  0.4139 -0.7328
19876SOL     OW61621   8.241   7.073   4.213 -0.1256  0.2623  0.1594
19876SOL    HW161622   8.312   7.035   4.162 -0.1054 -0.6137  0.8144
19876SOL    HW261623   8.224   7.158   4.171  0.0500 -0.3165 -1.1465
19877SOL     OW61624   0.701   6.311   8.567 -0.5037 -0.1389 -0.4629
19877SOL    HW161625   0.700   6.372   8.641 -0.8651  2.5734 -2.5616
19877SOL    HW261626   0.723   6.227   8.606 -2.5242  0.7490  2.9963
19878SOL     OW61627   7.672   6.018   3.484 -0.0254 -0.2472  0.4574
19878SOL    HW161628   7.660   6.029   3.390 -0.7282 -0.7284  0.4888
19878SOL    HW261629   7.691   6.106   3.516 -0.6420  0.0621 -0.0078
19879SOL     OW61630   3.337   5.653   6.500  0.1284  0.0309  0.1689
19879SOL    HW161631   3.249   5.628   6.473  0.2212 -1.8974  1.4822
19879SOL    HW261632   3.385   5.662   6.418 -0.4665 -2.2367 -0.4897
19880SOL     OW61633   3.203   6.948   1.564  0.1432 -0.3134 -0.5058
19880SOL    HW161634   3.222   7.024   1.620  1.5718 -1.2298  0.3100
19880SOL    HW261635   3.108   6.951   1.552 -0.1593  0.2302  1.5652
19881SOL     OW61636   5.978   4.030   1.042 -0.2068  0.5456 -0.2344
19881SOL    HW161637   6.067   4.011   1.011  0.1625  1.3469  0.3139
19881SOL    HW261638   5.923   4.015   0.965 -0.2362 -4.2993  0.4332
19882SOL     OW61639   4.723   2.420   8.543  0.3760 -0.0593  0.9433
19882SOL    HW161640   4.630   2.400   8.541  0.5668 -1.0261  1.2223
19882SOL    HW261641   4.727   2.516   8.539 -0.6567  0.0476  2.0754
19883SOL     OW61642   4.777   1.758   2.660 -0.3910 -0.0009  0.0401
19883SOL    HW161643   4.782   1.832   2.600  0.7888  1.1013  1.4387
19883SOL    HW261644   4.820   1.788   2.740 -1.9345 -1.3996  1.4864
19884SOL     OW61645   5.456   0.998   7.543 -0.1297 -0.1885  0.3482
19884SOL    HW161646   5.543   0.964   7.521 -0.1486  0.2422 -0.4276
19884SOL    HW261647   5.470   1.053   7.620  0.2066 -0.4753  0.4957
19885SOL     OW61648   2.054   1.585   5.324 -0.5010  0.4265  0.3846
19885SOL    HW161649   2.140   1.565   5.363  1.7872  1.3335 -3.6584
19885SOL    HW261650   2.038   1.677   5.348 -0.4399  0.2237  1.2437
19886SOL     OW61651   7.830   1.360   1.594 -0.0951  0.1110 -0.7041
19886SOL    HW161652   7.850   1.304   1.519 -1.3888 -0.9923 -0.2557
19886SOL    HW261653   7.840   1.304   1.670 -0.1379  0.8519 -0.1401
19887SOL     OW61654   7.653   0.620   2.625  0.0572  0.3769  0.2162
19887SOL    HW161655   7.663   0.622   2.530 -0.6274 -0.2280  0.1195
19887SOL    HW261656   7.740   0.595   2.657 -0.2211 -1.6132 -0.3959
19888SOL     OW61657   5.552   6.766   5.895  0.1363  0.2795  0.1567
19888SOL    HW161658   5.590   6.760   5.983  1.0430 -0.9892 -0.2877
19888SOL    HW261659   5.606   6.707   5.842 -0.5636  0.8234 -1.1932
19889SOL     OW61660   6.595   5.341   8.858  0.0861 -0.0322 -0.5863
19889SOL    HW161661   6.540   5.274   8.818 -1.8174  1.0189  0.1475
19889SOL    HW261662   6.561   5.424   8.826 -0.6193  0.7830  2.0058
19890SOL     OW61663   6.663   6.217   2.285  0.1262  0.3204  0.1108
19890SOL    HW161664   6.693   6.126   2.282 -1.7604 -0.4416  1.6139
19890SOL    HW261665   6.641   6.231   2.377 -2.7735  1.1582 -0.6051
19891SOL     OW61666   5.464   4.067   0.155 -0.0948  0.6144 -0.0814
19891SOL    HW161667   5.555   4.095   0.150 -0.4298  2.7456  2.8356
19891SOL    HW261668   5.458   4.015   0.235 -1.4432  0.5689 -0.1740
19892SOL     OW61669   8.871   8.569   2.172  0.5445 -0.5002 -0.3492
19892SOL    HW161670   8.824   8.505   2.120 -0.0982 -0.5827  0.3101
19892SOL    HW261671   8.867   8.535   2.262  2.0983 -0.6401 -0.3154
19893SOL     OW61672   7.038   0.557   2.592 -0.2741 -0.3926  0.4916
19893SOL    HW161673   7.016   0.542   2.684  1.2638 -0.9273  0.8081
19893SOL    HW261674   6.954   0.572   2.549 -1.1606 -1.5291  1.7371
19894SOL     OW61675   7.604   3.897   2.439  0.0515 -0.0464 -0.4165
19894SOL    HW161676   7.671   3.832   2.459  0.9537  1.0801  0.3822
19894SOL    HW261677   7.532   3.877   2.499 -0.3390 -1.2327 -1.2430
19895SOL     OW61678   8.245   6.374   4.169 -0.3751  0.6198 -0.4588
19895SOL    HW161679   8.299   6.451   4.155  1.5772 -0.4739  0.6789
19895SOL    HW261680   8.293   6.302   4.128 -2.4384  0.0248 -2.0397
19896SOL     OW61681   5.857   6.847   7.408 -0.0556 -0.1804 -0.0707
19896SOL    HW161682   5.781   6.790   7.421 -1.1178  0.9085 -1.2227
19896SOL    HW261683   5.857   6.905   7.484 -0.2922 -0.2631 -0.0072
19897SOL     OW61684   8.331   7.566   4.592 -0.3681 -0.4659 -0.1629
19897SOL    HW161685   8.322   7.661   4.591 -0.0394 -0.3809  1.6442
19897SOL    HW261686   8.417   7.549   4.553 -0.1571  0.0259  0.0845
19898SOL     OW61687   6.473   3.786   5.665 -0.3704  0.1776 -0.3680
19898SOL    HW161688   6.404   3.737   5.620  1.3352 -1.6148 -1.1939
19898SOL    HW261689   6.452   3.878   5.649 -1.6704 -0.3508 -1.9500
19899SOL     OW61690   4.614   0.245   0.178  0.3877  0.3952 -0.4254
19899SOL    HW161691   4.665   0.326   0.188  0.4837  0.6981 -2.7466
19899SOL    HW261692   4.539   0.257   0.235  1.4286  1.2108  0.8464
19900SOL     OW61693   5.908   0.529   8.558  0.3873 -0.1109  0.0459
19900SOL    HW161694   5.853   0.608   8.562  1.3214  0.5079  1.4372
19900SOL    HW261695   5.995   0.561   8.537  0.2930 -1.0802 -2.0638
19901SOL     OW61696   0.359   7.684   1.194 -0.8509  0.4263 -0.8472
19901SOL    HW161697   0.357   7.638   1.277  1.1441 -0.8464 -1.4255
19901SOL    HW261698   0.404   7.766   1.212 -0.9506  0.4174 -0.5646
19902SOL     OW61699   1.352   0.750   5.404  0.0502  0.3710 -0.0268
19902SOL    HW161700   1.350   0.813   5.331  0.3366  1.2465  0.6984
19902SOL    HW261701   1.420   0.784   5.462  0.5003 -0.8568  0.1807
19903SOL     OW61702   5.398   3.274   1.650 -0.3437  0.0065 -0.3725
19903SOL    HW161703   5.343   3.339   1.606 -0.8346  0.6686  1.1516
19903SOL    HW261704   5.464   3.326   1.695 -0.4152 -0.5915  0.4255
19904SOL     OW61705   6.291   3.367   1.492 -0.0760  0.1996  0.4027
19904SOL    HW161706   6.317   3.352   1.401 -2.4260  1.9822 -0.6696
19904SOL    HW261707   6.299   3.281   1.534  1.2066 -0.6414 -1.4302
19905SOL     OW61708   7.203   1.145   3.745 -0.3084 -0.0262  0.6940
19905SOL    HW161709   7.247   1.075   3.793  0.8533  0.6032  0.5850
19905SOL    HW261710   7.113   1.143   3.777 -0.4046 -1.7835  0.4302
19906SOL     OW61711   5.526   0.025   2.224  0.4024 -0.2406  0.0748
19906SOL    HW161712   5.541   0.001   2.133  0.6231 -1.9902  0.5296
19906SOL    HW261713   5.435   0.053   2.227 -0.0197 -1.4905 -0.4524
19907SOL     OW61714   2.409   7.841   0.133 -0.0896  0.4960  0.8209
19907SOL    HW161715   2.367   7.812   0.214  1.2511  0.1395  1.4212
19907SOL    HW261716   2.496   7.872   0.161  0.9822 -1.0119 -0.6395
19908SOL     OW61717   3.395   7.594   7.691 -0.7687 -0.3682  0.6308
19908SOL    HW161718   3.458   7.531   7.658 -0.8630 -0.1224 -0.0223
19908SOL    HW261719   3.412   7.674   7.642 -3.0823 -0.9227 -1.2949
19909SOL     OW61720   5.919   7.200   3.705 -0.4853  0.4245  0.3089
19909SOL    HW161721   5.946   7.112   3.731 -1.8107 -0.3603 -0.8423
19909SOL    HW261722   6.001   7.245   3.686  0.1858 -0.8329  0.0845
19910SOL     OW61723   7.809   0.036   8.825  0.1715  0.2955 -0.7426
19910SOL    HW161724   7.840   0.009   8.738  2.8486  1.7812 -0.3550
19910SOL    HW261725   7.800   0.131   8.819 -0.1315  0.3600  0.4733
19911SOL     OW61726   5.421   1.632   4.342  0.1170  0.1690 -0.0181
19911SOL    HW161727   5.438   1.632   4.248 -3.4543  1.3118 -0.8115
19911SOL    HW261728   5.443   1.543   4.370 -0.3898 -0.7388 -2.2996
19912SOL     OW61729   8.211   4.636   2.496 -0.3718 -0.8199 -0.0365
19912SOL    HW161730   8.233   4.571   2.563 -1.2296 -0.8116  0.2627
19912SOL    HW261731   8.156   4.700   2.541  0.5315  0.1877 -0.3072
19913SOL     OW61732   5.449   7.109   7.246  0.1810 -0.0074  0.1710
19913SOL    HW161733   5.359   7.119   7.275 -0.5011 -1.1071 -1.4971
19913SOL    HW261734   5.476   7.198   7.222  0.6601  0.9211  3.5674
19914SOL     OW61735   0.711   3.660   6.955  0.4756  0.2588  0.3953
19914SOL    HW161736   0.703   3.565   6.947  1.1034  0.1947  0.4732
19914SOL    HW261737   0.630   3.694   6.918  0.6851 -0.2669 -0.5702
19915SOL     OW61738   6.676   3.555   2.044  0.2205  0.0001 -0.2417
19915SOL    HW161739   6.647   3.511   2.124  1.9792 -0.3246  0.2521
19915SOL    HW261740   6.600   3.553   1.987 -0.8453 -0.4474  1.1279
19916SOL     OW61741   7.634   8.752   0.240  0.2672 -0.2373 -0.2088
19916SOL    HW161742   7.726   8.758   0.264  0.1880  0.5658 -0.0773
19916SOL    HW261743   7.632   8.693   0.164  0.7642 -1.0561  0.4074
19917SOL     OW61744   8.833   0.194   7.601  0.0694  0.1175  0.6492
19917SOL    HW161745   8.874   0.111   7.625  0.5059 -0.2744 -1.3238
19917SOL    HW261746   8.760   0.169   7.545  0.2922  1.0694 -0.0823
19918SOL     OW61747   2.977   6.584   7.371 -0.0663 -0.1844  0.5274
19918SOL    HW161748   2.933   6.530   7.305 -0.7420  0.9815 -0.0024
19918SOL    HW261749   3.069   6.583   7.345 -0.5506  1.6054 -1.4494
19919SOL     OW61750   0.496   6.595   7.352 -0.4873  0.1941  0.0947
19919SOL    HW161751   0.581   6.616   7.390  1.4891 -1.7248 -2.8982
19919SOL    HW261752   0.468   6.676   7.309  0.4869  0.4831 -0.0205
19920SOL     OW61753   5.321   1.082   8.831  0.1213  0.0682 -0.3247
19920SOL    HW161754   5.276   1.029   8.765 -1.0421  0.1350  0.3821
19920SOL    HW261755   5.282   1.169   8.823  1.5657  0.6803 -1.0409
19921SOL     OW61756   8.788   5.511   3.191  0.2639  0.0549  0.0146
19921SOL    HW161757   8.703   5.470   3.176  0.0344  0.6550 -0.3401
19921SOL    HW261758   8.837   5.496   3.111  0.2859  0.2132 -0.0021
19922SOL     OW61759   5.973   0.162   3.804  0.1351  0.2297  0.3515
19922SOL    HW161760   5.938   0.103   3.870 -4.5894  1.0681 -1.0409
19922SOL    HW261761   5.951   0.120   3.720  1.1773  1.6402 -0.6804
19923SOL     OW61762   8.418   0.714   8.613 -0.1136 -0.0448  0.8987
19923SOL    HW161763   8.402   0.776   8.542  1.3200  0.6199  1.1218
19923SOL    HW261764   8.483   0.654   8.578 -1.8623 -1.8244  0.4930
19924SOL     OW61765   4.267   7.125   7.987 -0.2567 -0.0024  0.8851
19924SOL    HW161766   4.345   7.171   8.017  1.4727 -2.0970 -0.1193
19924SOL    HW261767   4.233   7.081   8.065 -0.3494  0.7477  1.2784
19925SOL     OW61768   5.272   5.562   7.474  0.0592  0.4050 -0.0188
19925SOL    HW161769   5.270   5.578   7.380  1.4523  0.4358 -0.0686
19925SOL    HW261770   5.333   5.489   7.484 -1.1377 -0.5277  0.7557
19926SOL     OW61771   6.016   1.515   7.482  0.1901  0.2995 -0.1489
19926SOL    HW161772   6.059   1.430   7.487  1.0406  0.7134 -0.1708
19926SOL    HW261773   5.958   1.508   7.406 -0.4872 -0.5701  0.4291
19927SOL     OW61774   1.168   8.601   5.291 -0.8900  0.0833  0.1438
19927SOL    HW161775   1.163   8.674   5.228 -0.1472 -0.3073 -0.3802
19927SOL    HW261776   1.114   8.533   5.252 -1.9118  0.4833  0.8304
19928SOL     OW61777   8.693   0.488   0.231 -0.1478  0.2103 -0.7031
19928SOL    HW161778   8.706   0.496   0.136  0.1463  3.3997 -0.5264
19928SOL    HW261779   8.723   0.572   0.266 -0.7302 -0.6691  2.1902
19929SOL     OW61780   1.649   6.353   1.833  0.0818 -0.6621  0.2936
19929SOL    HW161781   1.703   6.426   1.864  0.5108 -0.6898 -0.3523
19929SOL    HW261782   1.588   6.393   1.771 -3.0094 -0.0316  3.4698
19930SOL     OW61783   7.523   8.603   7.910  0.4894  0.1934 -0.4200
19930SOL    HW161784   7.428   8.592   7.908  0.3934  0.8362 -3.0014
19930SOL    HW261785   7.556   8.530   7.858  1.2568  0.9286 -0.9930
19931SOL     OW61786   7.552   4.303   4.227  0.1784 -0.2525  0.1395
19931SOL    HW161787   7.573   4.252   4.148  0.7885 -0.9968  0.7710
19931SOL    HW261788   7.471   4.264   4.260 -0.1113  0.1001 -0.1475
19932SOL     OW61789   5.255   4.531   7.366 -0.0851 -0.2559 -0.0705
19932SOL    HW161790   5.303   4.566   7.441  1.3504 -1.2991 -0.4574
19932SOL    HW261791   5.322   4.520   7.298 -1.0215 -1.0661 -0.8851
19933SOL     OW61792   3.783   5.897   0.989  0.1420 -0.3548 -0.0066
19933SOL    HW161793   3.721   5.892   1.062  0.1567  0.7454  0.0905
19933SOL    HW261794   3.762   5.821   0.935 -0.9565 -0.2747  0.2845
19934SOL     OW61795   4.520   4.564   6.696 -0.1622 -0.3813  0.5060
19934SOL    HW161796   4.538   4.481   6.740  0.9857 -0.6538 -0.4232
19934SOL    HW261797   4.503   4.625   6.767 -2.3575 -1.6698  1.1730
19935SOL     OW61798   0.308   8.675   2.152 -0.1307  0.5508 -0.1086
19935SOL    HW161799   0.369   8.740   2.117  0.0629  0.3395 -0.1703
19935SOL    HW261800   0.231   8.681   2.096  0.0122  0.5067 -0.3095
19936SOL     OW61801   3.680   5.793   5.525  0.8560  0.1567  0.5104
19936SOL    HW161802   3.593   5.795   5.485  1.1875 -3.1582 -0.6153
19936SOL    HW261803   3.722   5.873   5.493  0.0806 -0.8419 -3.5540
19937SOL     OW61804   4.957   7.218   2.409 -0.0160  0.1192 -0.2384
19937SOL    HW161805   5.010   7.264   2.344 -0.6234  0.7427 -0.3144
19937SOL    HW261806   4.958   7.127   2.381  0.1872  0.2936 -0.8099
19938SOL     OW61807   8.646   3.015   3.645  0.3076 -0.5457 -0.3405
19938SOL    HW161808   8.644   3.016   3.740  0.6941 -0.0956 -0.3403
19938SOL    HW261809   8.738   3.019   3.622  0.1425  2.2123 -0.7684
19939SOL     OW61810   1.573   6.981   1.171 -1.2083 -0.4672 -0.0535
19939SOL    HW161811   1.593   6.936   1.253 -1.4451 -0.2000  0.1488
19939SOL    HW261812   1.564   7.073   1.195  0.0404 -0.1845 -0.5958
19940SOL     OW61813   5.739   1.309   4.320 -0.1143 -0.0478  0.4795
19940SOL    HW161814   5.707   1.265   4.399 -2.1852 -2.8708 -1.6865
19940SOL    HW261815   5.824   1.268   4.303  0.3463  0.5809  1.2141
19941SOL     OW61816   6.217   5.910   2.752  0.1701 -0.0067 -0.3357
19941SOL    HW161817   6.168   5.972   2.698 -0.0223  0.8554  0.7723
19941SOL    HW261818   6.198   5.937   2.842  2.5668  0.2938  0.1534
19942SOL     OW61819   3.538   7.414   0.793 -0.4090 -0.3178  0.1324
19942SOL    HW161820   3.591   7.345   0.755 -2.1584 -2.2439  0.9994
19942SOL    HW261821   3.601   7.475   0.831  1.1991 -2.2589  0.7224
19943SOL     OW61822   4.644   8.765   7.140  0.0672  0.0175  0.5380
19943SOL    HW161823   4.583   8.816   7.086  0.2235  1.3129  1.5194
19943SOL    HW261824   4.629   8.797   7.230  0.6875 -1.1758  1.0890
19944SOL     OW61825   4.309   8.372   2.656  0.1275  0.1786  0.3701
19944SOL    HW161826   4.325   8.464   2.634 -0.1684  0.2677  0.5319
19944SOL    HW261827   4.216   8.367   2.675  0.0241 -0.2774 -0.2140
19945SOL     OW61828   3.813   3.766   3.128 -0.5499 -0.6376  0.6848
19945SOL    HW161829   3.816   3.852   3.086  0.1359  0.7434  3.3214
19945SOL    HW261830   3.762   3.711   3.068 -0.1915  1.3118 -1.5407
19946SOL     OW61831   7.777   7.735   0.805 -0.2657 -0.8884 -0.4065
19946SOL    HW161832   7.681   7.732   0.809 -0.3736  0.9586 -0.3951
19946SOL    HW261833   7.796   7.774   0.720  0.2674  2.0537  0.9002
19947SOL     OW61834   8.619   6.529   3.615 -0.2790 -0.5153  0.3391
19947SOL    HW161835   8.524   6.522   3.629 -0.3209  0.1081  0.3764
19947SOL    HW261836   8.639   6.621   3.631  0.5304 -0.8731  1.5008
19948SOL     OW61837   4.865   4.859   3.735 -0.1819 -0.3803 -0.2075
19948SOL    HW161838   4.794   4.914   3.768 -0.8953 -0.9744 -0.7284
19948SOL    HW261839   4.886   4.801   3.808 -0.6540 -0.6070 -0.2460
19949SOL     OW61840   1.265   3.424   4.610  0.0111  0.3100 -0.0369
19949SOL    HW161841   1.185   3.372   4.600 -0.1877  0.5125  0.4757
19949SOL    HW261842   1.246   3.483   4.682  1.7938 -1.9108  2.4377
19950SOL     OW61843   6.898   5.299   0.256 -0.2821  0.0488 -0.3503
19950SOL    HW161844   6.828   5.284   0.320  0.2866 -1.8840 -0.1030
19950SOL    HW261845   6.936   5.383   0.280 -1.4792  0.3702  0.5028
19951SOL     OW61846   1.481   6.341   7.533  0.8291  0.0384  0.5510
19951SOL    HW161847   1.445   6.255   7.513  0.8454 -0.5312  2.7587
19951SOL    HW261848   1.523   6.369   7.451  1.9448 -2.6126  0.1138
19952SOL     OW61849   3.448   5.599   1.295  0.0735 -0.1983 -0.3395
19952SOL    HW161850   3.412   5.645   1.219  0.4778 -1.4218 -1.2976
19952SOL    HW261851   3.470   5.512   1.263  2.6183  0.0314  0.5296
19953SOL     OW61852   4.614   0.864   1.589 -0.0253 -0.1089  0.0616
19953SOL    HW161853   4.673   0.913   1.647  0.3470 -0.6755  0.1659
19953SOL    HW261854   4.648   0.879   1.502 -0.8423  1.1071 -0.0812
19954SOL     OW61855   3.582   6.675   4.247  0.0335 -0.3198  0.3402
19954SOL    HW161856   3.578   6.616   4.323  0.3391 -0.6418  0.1130
19954SOL    HW261857   3.676   6.690   4.235 -0.0706  2.0985  1.8303
19955SOL     OW61858   7.781   3.413   1.144 -0.1032 -0.3310  0.3459
19955SOL    HW161859   7.688   3.433   1.127 -0.7315 -1.4704  2.2187
19955SOL    HW261860   7.810   3.484   1.201  0.4240  0.4085 -0.7911
19956SOL     OW61861   2.018   6.080   4.861  0.3746  0.0616  0.1035
19956SOL    HW161862   2.073   6.089   4.939 -1.4649  1.4494  1.3144
19956SOL    HW261863   1.939   6.036   4.892 -0.0818 -0.0708 -1.1675
19957SOL     OW61864   6.764   4.586   4.508  1.1798 -0.0559  0.2400
19957SOL    HW161865   6.730   4.507   4.467 -1.1710  0.3077  1.3116
19957SOL    HW261866   6.786   4.559   4.597  1.3356  0.2705  0.3007
19958SOL     OW61867   7.156   1.416   3.837  0.2694 -0.2902 -0.1389
19958SOL    HW161868   7.081   1.404   3.895 -2.2411  2.1823 -2.5778
19958SOL    HW261869   7.171   1.330   3.797 -1.7196 -0.6947 -0.0760
19959SOL     OW61870   5.551   1.307   7.611 -0.0324  0.2581  0.1297
19959SOL    HW161871   5.590   1.382   7.565 -0.1432 -0.0226 -0.4279
19959SOL    HW261872   5.462   1.336   7.631  0.4536  0.9110  1.4323
19960SOL     OW61873   6.295   1.043   0.156 -0.0516  0.6003  0.0911
19960SOL    HW161874   6.283   0.980   0.227  0.5816 -1.5716 -1.6003
19960SOL    HW261875   6.206   1.060   0.125 -0.1530 -1.0683 -0.6649
19961SOL     OW61876   4.234   7.796   4.812  0.2905  0.2542 -0.4623
19961SOL    HW161877   4.165   7.749   4.766 -0.1334  1.9017 -1.6156
19961SOL    HW261878   4.200   7.809   4.900  0.1879 -1.0602 -0.2867
19962SOL     OW61879   6.221   7.252   5.999 -0.0931  0.1279 -0.7482
19962SOL    HW161880   6.192   7.325   5.945  1.5139  0.5473 -1.1052
19962SOL    HW261881   6.142   7.200   6.013 -0.8285  0.7008 -2.4111
19963SOL     OW61882   1.297   3.487   7.326  0.4001 -0.3769  0.4506
19963SOL    HW161883   1.348   3.512   7.249 -0.5847 -1.2078 -0.5138
19963SOL    HW261884   1.208   3.517   7.307  0.8412  3.4727  3.2469
19964SOL     OW61885   1.169   6.839   8.243 -0.1846  0.1928  0.0334
19964SOL    HW161886   1.251   6.876   8.275 -1.2990  1.5776  1.4473
19964SOL    HW261887   1.159   6.872   8.154  0.0097  1.3701  0.4388
19965SOL     OW61888   7.083   5.090   3.173 -0.5766 -0.1777 -0.1960
19965SOL    HW161889   7.141   5.015   3.179  0.1953  0.3357 -1.0241
19965SOL    HW261890   7.091   5.134   3.258 -1.4943 -1.3244  0.5248
19966SOL     OW61891   2.272   6.214   2.922 -0.4328 -0.4558 -0.2254
19966SOL    HW161892   2.206   6.156   2.960  0.2890 -0.5418  0.9790
19966SOL    HW261893   2.340   6.219   2.990  0.8758 -0.5203 -1.4987
19967SOL     OW61894   4.708   7.275   8.666  0.7474 -0.3988 -0.6745
19967SOL    HW161895   4.746   7.214   8.602 -2.0775 -0.5533 -2.4046
19967SOL    HW261896   4.632   7.228   8.701  0.5269  0.8375  0.5703
19968SOL     OW61897   7.247   4.669   0.232 -0.1711  0.6591 -0.1517
19968SOL    HW161898   7.173   4.722   0.260 -0.2312  0.8857 -0.7283
19968SOL    HW261899   7.218   4.579   0.244 -0.9843  0.7196 -1.4584
19969SOL     OW61900   4.847   7.810   1.813  0.3666  0.1457 -0.1316
19969SOL    HW161901   4.845   7.903   1.790  2.0519  0.2431  0.0057
19969SOL    HW261902   4.886   7.767   1.737  0.6319 -0.2956  0.2481
19970SOL     OW61903   2.628   2.762   7.965  1.2315  0.9060  0.1171
19970SOL    HW161904   2.697   2.699   7.943  0.5662  0.5652 -1.0702
19970SOL    HW261905   2.634   2.772   8.060  1.2199 -1.0892  0.3618
19971SOL     OW61906   5.262   1.914   5.995 -0.6283  0.3584  0.4192
19971SOL    HW161907   5.342   1.932   6.042 -0.6171  1.1673  0.1023
19971SOL    HW261908   5.206   1.990   6.011 -1.2394 -0.0794  0.4326
19972SOL     OW61909   6.814   7.948   6.424  0.0447 -0.2348 -0.0484
19972SOL    HW161910   6.881   7.879   6.431 -0.1231 -0.2614  1.5541
19972SOL    HW261911   6.731   7.900   6.425 -0.0529 -0.0597  0.2884
19973SOL     OW61912   0.804   1.074   6.992 -0.0749 -0.3702 -0.5127
19973SOL    HW161913   0.766   0.999   7.038 -1.0507 -0.9758 -2.2110
19973SOL    HW261914   0.891   1.083   7.031 -1.0386 -0.4564  1.8060
19974SOL     OW61915   8.451   6.202   1.872 -0.6482  0.8980 -0.4964
19974SOL    HW161916   8.413   6.287   1.848  0.4430  1.4139 -0.5049
19974SOL    HW261917   8.460   6.155   1.789  0.5054  1.5597 -0.7806
19975SOL     OW61918   4.572   6.581   6.434  0.0649  0.1890 -0.0053
19975SOL    HW161919   4.522   6.662   6.424  1.8332  1.3235 -0.0741
19975SOL    HW261920   4.663   6.607   6.420  0.6113 -1.9981 -0.9842
19976SOL     OW61921   1.750   7.501   4.682 -0.5513 -0.1849  0.1278
19976SOL    HW161922   1.703   7.491   4.764  0.2694  1.7125  0.8885
19976SOL    HW261923   1.685   7.535   4.621 -0.7447  0.1714  0.5236
19977SOL     OW61924   1.236   3.721   6.342  0.3360 -0.1531 -0.0154
19977SOL    HW161925   1.144   3.694   6.340  0.2142  0.2481  0.0114
19977SOL    HW261926   1.276   3.663   6.407 -0.3802  1.0826  1.6160
19978SOL     OW61927   6.281   8.229   6.122 -0.3139 -0.2751  0.4610
19978SOL    HW161928   6.260   8.321   6.138 -0.2309 -0.0688 -0.5913
19978SOL    HW261929   6.342   8.206   6.192  1.3288  1.0740 -0.4748
19979SOL     OW61930   1.911   6.281   5.931 -0.1628  1.0234 -0.3189
19979SOL    HW161931   1.839   6.319   5.881 -0.4748  0.6235 -0.1794
19979SOL    HW261932   1.934   6.349   5.995 -0.5831  1.0609 -0.2034
19980SOL     OW61933   3.486   7.293   4.763 -0.1812  0.3085 -0.5603
19980SOL    HW161934   3.496   7.345   4.842  0.7810  0.9798 -1.1040
19980SOL    HW261935   3.508   7.203   4.789  0.2840  0.5555 -0.1023
19981SOL     OW61936   2.058   2.258   1.263  0.1128  0.1561  0.0350
19981SOL    HW161937   1.970   2.231   1.238 -0.6277  2.4473 -0.0456
19981SOL    HW261938   2.098   2.288   1.181  0.6004  0.1085  0.2531
19982SOL     OW61939   4.266   3.493   0.159  0.2139  0.2278 -0.0507
19982SOL    HW161940   4.187   3.536   0.126 -0.0425 -0.4364 -0.3066
19982SOL    HW261941   4.336   3.524   0.101  0.1280  0.7220  0.1031
19983SOL     OW61942   7.274   5.985   0.785  0.0147 -0.2318  0.2520
19983SOL    HW161943   7.205   5.970   0.851  0.4896  0.5903  0.9611
19983SOL    HW261944   7.343   6.030   0.833  0.3267  0.4896 -0.8458
19984SOL     OW61945   7.623   0.848   4.320 -0.1472  0.3684  0.5987
19984SOL    HW161946   7.534   0.846   4.355 -0.0132  1.2813  1.0128
19984SOL    HW261947   7.668   0.776   4.365 -0.6199  0.0356  0.5402
19985SOL     OW61948   1.683   6.489   2.359 -0.3489  0.1109  0.6764
19985SOL    HW161949   1.705   6.560   2.419 -4.0553  1.6782  0.4351
19985SOL    HW261950   1.602   6.453   2.393 -2.1137  0.4371 -2.7305
19986SOL     OW61951   8.669   1.751   8.802 -0.3884 -0.0530 -0.5285
19986SOL    HW161952   8.607   1.763   8.731  0.8582  0.5920 -1.5427
19986SOL    HW261953   8.714   1.835   8.810  1.9640 -1.1393 -1.4087
19987SOL     OW61954   4.265   3.257   7.079  0.3616 -0.3777 -0.5301
19987SOL    HW161955   4.346   3.305   7.058  1.2435 -1.4891  0.2384
19987SOL    HW261956   4.196   3.310   7.040  1.2949  1.5008  0.2360
19988SOL     OW61957   3.254   3.652   2.862 -0.1536  0.4486  0.2098
19988SOL    HW161958   3.287   3.681   2.947 -0.4536  2.7409 -0.3979
19988SOL    HW261959   3.170   3.698   2.852 -0.0621  0.3254 -1.3675
19989SOL     OW61960   8.375   2.008   8.012  0.8258  0.0222 -0.0504
19989SOL    HW161961   8.444   2.025   8.077  0.0475 -2.3830  1.5310
19989SOL    HW261962   8.376   1.913   8.001 -0.8829  0.1356 -1.5912
19990SOL     OW61963   3.777   1.334   1.432  0.4294 -0.0400  0.2457
19990SOL    HW161964   3.857   1.287   1.408  0.8229  0.3540  0.7691
19990SOL    HW261965   3.795   1.368   1.519 -0.4012 -0.1418  0.4588
19991SOL     OW61966   7.749   5.644   4.362 -0.4595 -0.5946 -0.3183
19991SOL    HW161967   7.788   5.670   4.445 -2.7265 -1.6261  1.1576
19991SOL    HW261968   7.755   5.722   4.307  1.1841  0.0742  0.7395
19992SOL     OW61969   1.573   4.371   3.607  0.1453  0.4630  0.7430
19992SOL    HW161970   1.533   4.456   3.624 -1.3626  0.0476 -0.4904
19992SOL    HW261971   1.559   4.321   3.687 -0.3720  0.8768  0.9155
19993SOL     OW61972   2.461   8.587   1.353 -0.1000 -0.7823  0.1048
19993SOL    HW161973   2.475   8.669   1.400  1.4123 -1.8615  1.6576
19993SOL    HW261974   2.488   8.606   1.263  2.1949 -0.0619  0.8828
19994SOL     OW61975   6.379   7.882   4.678 -0.2470 -0.0464 -0.0107
19994SOL    HW161976   6.426   7.800   4.693 -0.3629 -0.1006  0.0583
19994SOL    HW261977   6.447   7.946   4.661 -0.2253 -0.6815 -2.7297
19995SOL     OW61978   1.188   2.660   6.540 -0.1317 -0.2174 -0.0727
19995SOL    HW161979   1.144   2.726   6.487 -1.3021 -1.3881 -0.6142
19995SOL    HW261980   1.125   2.640   6.610  0.4120 -0.4087  0.3651
19996SOL     OW61981   6.333   7.442   6.769  0.1921 -0.6422  0.4840
19996SOL    HW161982   6.358   7.364   6.719  0.2742  1.3572 -2.8941
19996SOL    HW261983   6.244   7.424   6.799  0.5732 -2.4007  0.6770
19997SOL     OW61984   6.963   8.083   5.876 -0.0832 -0.1758  0.2608
19997SOL    HW161985   6.935   8.109   5.964  0.6259  0.6382  0.2694
19997SOL    HW261986   6.893   8.112   5.819  1.3390  3.4583  0.0696
19998SOL     OW61987   1.305   7.655   1.435  0.1620  0.1766  0.7904
19998SOL    HW161988   1.385   7.604   1.422 -1.3265 -1.7781 -1.8198
19998SOL    HW261989   1.332   7.745   1.419  1.7859 -0.4939 -0.6970
19999SOL     OW61990   3.576   7.515   6.415 -0.2712  0.0922 -0.2663
19999SOL    HW161991   3.556   7.602   6.382 -0.9822 -0.0920 -0.3354
19999SOL    HW261992   3.592   7.462   6.337 -2.4097 -0.4582 -0.4111
20000SOL     OW61993   2.576   4.666   0.265  0.3268  0.0358 -0.1302
20000SOL    HW161994   2.666   4.651   0.293  0.4936  0.9847 -0.1261
20000SOL    HW261995   2.584   4.712   0.182 -0.0661  2.9358  1.3117
20001SOL     OW61996   6.841   5.202   5.173  0.5393 -0.3846  0.3559
20001SOL    HW161997   6.832   5.134   5.106  0.2276  0.3633 -0.3799
20001SOL    HW261998   6.934   5.198   5.198 -0.1163 -3.4464  2.9211
20002SOL     OW61999   6.612   4.369   7.800  0.2471 -0.2595  0.2169
20002SOL    HW162000   6.686   4.315   7.826  1.2169  0.2504 -1.3200
20002SOL    HW262001   6.630   4.392   7.709 -1.9645 -0.3640 -0.3106
20003SOL     OW62002   2.798   3.238   5.361 -0.3401  0.1655 -0.2299
20003SOL    HW162003   2.803   3.250   5.456  0.1854 -0.7394 -0.1300
20003SOL    HW262004   2.890   3.232   5.333 -0.4502  1.4352 -0.9447
20004SOL     OW62005   4.118   0.737   1.338  0.0675  0.1641 -0.0969
20004SOL    HW162006   4.032   0.714   1.375  0.9387 -2.3330  0.5965
20004SOL    HW262007   4.128   0.679   1.263  1.1567  0.3826 -0.1353
20005SOL     OW62008   3.170   1.223   1.302 -0.4321 -0.0452  0.0440
20005SOL    HW162009   3.189   1.229   1.208  3.5263 -0.1130  0.6514
20005SOL    HW262010   3.223   1.149   1.332 -1.0414  0.4142  2.4429
20006SOL     OW62011   4.318   5.113   8.012 -0.1733 -0.2120 -0.0602
20006SOL    HW162012   4.399   5.137   8.057  1.2259  0.9489 -2.9826
20006SOL    HW262013   4.340   5.033   7.964 -0.4609  0.4970 -1.4392
20007SOL     OW62014   6.888   8.527   4.420  0.0655  0.1020 -0.1246
20007SOL    HW162015   6.935   8.507   4.339  1.2830  1.1811  0.2790
20007SOL    HW262016   6.796   8.515   4.398  0.4419 -0.8300 -1.3051
20008SOL     OW62017   1.709   2.881   6.032  0.3228 -0.5440  0.1350
20008SOL    HW162018   1.685   2.956   5.978  1.9517 -0.0686  0.0291
20008SOL    HW262019   1.790   2.906   6.075  0.2288 -1.7650  1.1109
20009SOL     OW62020   7.790   7.575   5.440  0.5574 -0.3864  0.1702
20009SOL    HW162021   7.781   7.545   5.349 -0.2226 -0.6843  0.3374
20009SOL    HW262022   7.701   7.572   5.475  0.5587  1.4519  0.4174
20010SOL     OW62023   8.860   8.640   7.238 -0.1066  0.1402  0.5348
20010SOL    HW162024   8.929   8.574   7.238 -1.1338 -0.9810  0.3854
20010SOL    HW262025   8.899   8.717   7.278  2.0951  0.4857 -1.9704
20011SOL     OW62026   7.626   3.304   5.409 -0.0416 -0.4220  0.4366
20011SOL    HW162027   7.652   3.214   5.389 -2.2335 -1.1077  0.4006
20011SOL    HW262028   7.584   3.298   5.495 -1.1855  0.3376 -0.0392
20012SOL     OW62029   1.580   4.299   2.724  0.3638 -0.2796  0.2726
20012SOL    HW162030   1.611   4.237   2.658  0.2402  0.4005 -0.4372
20012SOL    HW262031   1.644   4.371   2.721 -0.8874  0.8477 -0.7597
20013SOL     OW62032   6.981   7.253   7.812 -0.3897  0.5198 -0.2051
20013SOL    HW162033   7.074   7.256   7.789  0.3290 -0.3695  2.3278
20013SOL    HW262034   6.969   7.323   7.876 -0.9519 -0.6635  1.0374
20014SOL     OW62035   2.133   3.834   4.386  0.0823 -0.6611 -0.8666
20014SOL    HW162036   2.113   3.848   4.293 -0.0809 -0.3210 -0.7808
20014SOL    HW262037   2.137   3.739   4.395 -0.2702 -0.7067 -1.1481
20015SOL     OW62038   7.803   4.127   4.226 -0.1837 -0.2577  0.1316
20015SOL    HW162039   7.814   4.032   4.219  1.4383 -0.2953  2.1608
20015SOL    HW262040   7.772   4.154   4.140  0.2355 -2.4983 -0.7977
20016SOL     OW62041   1.000   8.519   1.283 -0.5109  0.3248 -0.6535
20016SOL    HW162042   0.991   8.441   1.229 -2.4379  0.6108 -0.8474
20016SOL    HW262043   0.931   8.578   1.252  0.4852  1.8626 -0.0971
20017SOL     OW62044   7.386   7.991   5.375  0.0738  0.8899  0.2823
20017SOL    HW162045   7.463   8.020   5.326 -0.9035  0.1036 -1.8509
20017SOL    HW262046   7.324   8.064   5.369 -0.4501  0.3893 -0.6296
20018SOL     OW62047   6.361   0.876   4.489  0.0147  0.6431 -0.0983
20018SOL    HW162048   6.455   0.875   4.508  0.5423 -0.3122 -2.4082
20018SOL    HW262049   6.345   0.964   4.455 -0.3152  1.3391  1.7215
20019SOL     OW62050   8.401   4.551   5.472 -0.1574 -0.5592 -0.3829
20019SOL    HW162051   8.449   4.592   5.544 -1.3296  0.8561 -0.3573
20019SOL    HW262052   8.311   4.581   5.484 -1.2952 -3.8460  0.0999
20020SOL     OW62053   3.198   5.452   1.465 -0.2776 -0.6096  0.2469
20020SOL    HW162054   3.264   5.493   1.410 -0.7844  0.6098  0.5083
20020SOL    HW262055   3.125   5.514   1.466 -1.4740 -1.9516 -0.0967
20021SOL     OW62056   7.988   0.498   0.977 -0.0186  0.7574 -0.7004
20021SOL    HW162057   7.925   0.450   0.923  0.3733 -0.2445 -0.2832
20021SOL    HW262058   8.049   0.536   0.913  0.2522 -0.1477 -0.9933
20022SOL     OW62059   2.923   4.748   6.590  0.4843  0.2910 -0.9326
20022SOL    HW162060   2.890   4.660   6.569  0.7288  0.2421 -1.1237
20022SOL    HW262061   2.844   4.803   6.592  0.2433 -0.0800 -0.0220
20023SOL     OW62062   2.708   0.206   3.846  0.6489  0.1457  0.5024
20023SOL    HW162063   2.734   0.139   3.783 -0.6549 -0.3670  0.4790
20023SOL    HW262064   2.657   0.269   3.795  0.1314  0.0612  0.9014
20024SOL     OW62065   7.399   5.407   6.008  0.1198 -0.5034  0.0040
20024SOL    HW162066   7.431   5.415   5.918 -1.0753  0.5832 -0.3553
20024SOL    HW262067   7.361   5.318   6.012  0.9660 -0.8852 -0.2827
20025SOL     OW62068   6.859   8.174   4.864 -0.2596 -1.1084 -0.0614
20025SOL    HW162069   6.802   8.135   4.930  0.9258 -1.9015  0.5430
20025SOL    HW262070   6.946   8.138   4.883  0.4570  0.0636 -0.9335
20026SOL     OW62071   7.409   1.551   5.156  0.1558  0.0731 -0.3055
20026SOL    HW162072   7.465   1.626   5.178  1.0097 -0.9118  1.0731
20026SOL    HW262073   7.349   1.544   5.229 -1.2963  0.6182 -1.4012
20027SOL     OW62074   0.961   8.611   1.002  0.4368  0.2687  0.5542
20027SOL    HW162075   1.044   8.592   1.047  0.7513 -0.5578 -0.3532
20027SOL    HW262076   0.930   8.526   0.972 -0.8869  0.5408  1.1019
20028SOL     OW62077   8.273   1.207   2.961 -0.0449  0.1147  0.6250
20028SOL    HW162078   8.217   1.132   2.984 -1.9493  1.3162  0.1462
20028SOL    HW262079   8.251   1.274   3.025  0.7715  0.6726  0.3366
20029SOL     OW62080   7.161   0.566   0.546  0.2327  0.1847 -0.7567
20029SOL    HW162081   7.250   0.566   0.583 -0.4937  0.6533  1.0916
20029SOL    HW262082   7.109   0.614   0.610 -1.6147 -1.1654 -1.1796
20030SOL     OW62083   8.763   2.488   2.388  0.1045 -0.4863  0.4295
20030SOL    HW162084   8.711   2.499   2.308  2.3131 -0.0799 -1.0359
20030SOL    HW262085   8.781   2.395   2.392 -2.5313 -1.0341  2.2338
20031SOL     OW62086   3.666   2.457   2.105  0.1819  0.3564  0.2303
20031SOL    HW162087   3.626   2.537   2.140  0.4764  0.9871 -0.8198
20031SOL    HW262088   3.663   2.468   2.010 -1.6071 -1.7967 -0.0436
20032SOL     OW62089   8.069   7.079   8.029 -0.4637 -0.4626  0.4744
20032SOL    HW162090   8.099   7.142   7.963  3.0956 -0.7712  1.5979
20032SOL    HW262091   8.015   7.130   8.089  0.7267  1.0757  0.2807
20033SOL     OW62092   6.697   5.626   4.154 -0.3984  0.0372 -0.0374
20033SOL    HW162093   6.650   5.584   4.226 -0.3672 -1.9854 -1.1236
20033SOL    HW262094   6.734   5.553   4.103  1.3125  1.4609 -0.9552
20034SOL     OW62095   4.752   8.547   7.322 -0.0557 -0.0650 -0.4455
20034SOL    HW162096   4.733   8.609   7.251  0.4020  0.9486  0.2958
20034SOL    HW262097   4.667   8.527   7.359 -0.2015  0.2028 -0.6280
20035SOL     OW62098   1.809   8.523   0.535  0.3501 -0.3218  0.5584
20035SOL    HW162099   1.863   8.601   0.546 -0.8258  0.4207  1.2729
20035SOL    HW262100   1.721   8.551   0.559 -0.5938 -1.2129 -1.6225
20036SOL     OW62101   7.522   3.528   4.683 -0.1936 -0.5400  0.1627
20036SOL    HW162102   7.434   3.564   4.678 -0.2596 -0.6068  0.7407
20036SOL    HW262103   7.520   3.470   4.760  0.4242 -0.3356  0.3412
20037SOL     OW62104   4.623   2.935   2.312  0.1041  0.6993 -0.0874
20037SOL    HW162105   4.655   2.982   2.235 -0.1712  0.8147 -0.1310
20037SOL    HW262106   4.558   2.993   2.350 -0.6115  0.1272 -0.4281
20038SOL     OW62107   8.713   1.929   2.652  0.2131  0.3530  0.2277
20038SOL    HW162108   8.724   1.884   2.736  0.7377  0.7546  0.3822
20038SOL    HW262109   8.636   1.985   2.665  1.8492  2.4906  1.4072
20039SOL     OW62110   1.773   5.588   8.644 -0.7709  0.2200  0.5133
20039SOL    HW162111   1.782   5.670   8.595  1.0593  0.1857  0.7229
20039SOL    HW262112   1.763   5.616   8.735 -1.6257  0.2227  0.4291
20040SOL     OW62113   8.191   3.627   1.340  0.0709  0.2471 -0.0035
20040SOL    HW162114   8.259   3.633   1.273 -0.4985 -1.0337 -0.7525
20040SOL    HW262115   8.159   3.537   1.333 -0.8699  0.4689  1.1444
20041SOL     OW62116   6.901   3.138   5.987  0.4393  0.4041 -0.1968
20041SOL    HW162117   6.846   3.214   6.003  0.0632  0.1650 -0.3482
20041SOL    HW262118   6.883   3.078   6.060  1.9730  1.1424  0.8459
20042SOL     OW62119   6.630   6.532   6.747 -0.2695  0.2055 -0.2472
20042SOL    HW162120   6.612   6.475   6.822  0.0459  0.2922 -0.1064
20042SOL    HW262121   6.551   6.525   6.693 -0.8760  0.8579  0.5393
20043SOL     OW62122   6.350   6.531   4.761 -0.2050 -0.3825 -0.5400
20043SOL    HW162123   6.307   6.446   4.773  0.0856 -0.3849  0.5949
20043SOL    HW262124   6.364   6.564   4.850  1.4116 -0.0218 -0.8908
20044SOL     OW62125   5.220   6.613   6.548  0.1253  0.3252 -0.1040
20044SOL    HW162126   5.255   6.614   6.637 -0.9494  0.4954  0.3362
20044SOL    HW262127   5.170   6.695   6.541  0.3392  0.3952 -0.9261
20045SOL     OW62128   0.113   2.109   3.735  0.2728  0.0650 -0.2045
20045SOL    HW162129   0.199   2.145   3.759  0.0782  0.4346 -0.0590
20045SOL    HW262130   0.052   2.151   3.795  0.2923 -2.1566  1.4779
20046SOL     OW62131   6.178   3.943   7.471  0.7701  0.3022  0.1457
20046SOL    HW162132   6.265   3.979   7.492  0.9280 -1.2753  2.5433
20046SOL    HW262133   6.182   3.926   7.377  2.1104  2.6197 -0.3206
20047SOL     OW62134   6.262   3.088   0.134 -0.4775 -0.4708 -0.0063
20047SOL    HW162135   6.282   3.003   0.095 -1.6445 -1.7528  1.9803
20047SOL    HW262136   6.172   3.079   0.165 -1.0986  1.9779 -0.8699
20048SOL     OW62137   4.660   2.511   1.122  0.2237  0.5383 -0.1474
20048SOL    HW162138   4.692   2.423   1.142  1.7826  1.1941  0.4578
20048SOL    HW262139   4.700   2.532   1.037 -0.9105  0.3292 -0.7528
20049SOL     OW62140   8.236   8.196   8.761 -0.0353 -0.1675 -0.2043
20049SOL    HW162141   8.166   8.243   8.715 -1.7043 -1.7375  0.6241
20049SOL    HW262142   8.237   8.234   8.848  2.8591  2.5267 -1.2123
20050SOL     OW62143   0.643   1.829   2.482  0.2677  0.5799  0.1785
20050SOL    HW162144   0.591   1.904   2.450  0.4683  0.5449 -0.2345
20050SOL    HW262145   0.579   1.774   2.527 -0.1203  0.3801 -0.6011
20051SOL     OW62146   1.180   4.934   5.411  0.0609  0.3651  0.1026
20051SOL    HW162147   1.210   5.024   5.402 -1.4037  0.9395  0.5906
20051SOL    HW262148   1.239   4.883   5.356  1.9471  1.3686  1.0875
20052SOL     OW62149   1.933   3.573   7.617  0.1551  0.3030  0.5855
20052SOL    HW162150   1.855   3.533   7.654  0.3048  0.9465  1.6427
20052SOL    HW262151   1.904   3.659   7.587  0.1813  0.0405 -0.2212
20053SOL     OW62152   0.076   0.183   3.286 -0.2102 -0.5616 -0.0113
20053SOL    HW162153   0.163   0.150   3.265 -0.6011 -1.3849 -0.3898
20053SOL    HW262154   0.032   0.193   3.201 -0.5610 -0.3597  0.1878
20054SOL     OW62155   4.512   3.702   5.419  0.1934 -0.0116 -0.5653
20054SOL    HW162156   4.424   3.668   5.410 -0.3931  1.4029 -0.3827
20054SOL    HW262157   4.540   3.722   5.330  0.0419  0.2467 -0.5542
20055SOL     OW62158   4.905   7.719   6.515 -0.0249  0.5936 -0.2926
20055SOL    HW162159   4.960   7.695   6.589  1.3046  0.4747 -1.2899
20055SOL    HW262160   4.817   7.691   6.540  0.6799 -0.9285  0.5717
20056SOL     OW62161   6.504   2.079   5.464 -0.1550 -0.0162 -0.2038
20056SOL    HW162162   6.424   2.100   5.415 -0.1738 -0.0147 -0.1723
20056SOL    HW262163   6.573   2.130   5.421 -0.1322 -0.1779 -0.3632
20057SOL     OW62164   6.380   0.069   2.287 -0.0406  0.2328 -0.6499
20057SOL    HW162165   6.295   0.041   2.321 -1.2008 -0.5045 -3.7963
20057SOL    HW262166   6.418  -0.010   2.250  0.5787  1.1520 -2.0521
20058SOL     OW62167   6.433   8.758   6.135 -0.6840  0.3118 -0.2317
20058SOL    HW162168   6.358   8.771   6.077 -1.4578 -1.3373  0.3226
20058SOL    HW262169   6.464   8.846   6.154 -3.1164  1.1369  0.3414
20059SOL     OW62170   5.587   0.999   7.967 -0.6222 -0.5077  0.3164
20059SOL    HW162171   5.642   1.073   7.939 -1.1114 -0.3858 -0.3455
20059SOL    HW262172   5.612   0.927   7.909 -1.8816 -0.1609 -0.6991
20060SOL     OW62173   3.616   3.434   4.057 -0.6042  0.4232 -0.2084
20060SOL    HW162174   3.683   3.470   4.114 -0.3110  0.0949 -0.3467
20060SOL    HW262175   3.559   3.509   4.037  0.1870  0.8844 -0.7542
20061SOL     OW62176   5.487   7.000   6.980  0.2521 -0.0142  0.3316
20061SOL    HW162177   5.486   7.018   7.074 -1.4554  1.2045  0.1211
20061SOL    HW262178   5.577   7.019   6.953  0.6184  0.1583  1.6185
20062SOL     OW62179   7.527   5.105   2.737  0.8053 -0.2192  0.3066
20062SOL    HW162180   7.566   5.048   2.803 -0.0980 -0.2392  0.8468
20062SOL    HW262181   7.513   5.188   2.783 -1.6448 -0.8171  0.7793
20063SOL     OW62182   8.610   4.699   6.606 -0.0750  0.8449  0.1200
20063SOL    HW162183   8.587   4.757   6.532 -0.6209  1.3136  0.6457
20063SOL    HW262184   8.530   4.648   6.621  0.4819 -0.2351 -0.4975
20064SOL     OW62185   1.216   3.231   0.153  0.2771  0.1213  0.2088
20064SOL    HW162186   1.125   3.236   0.183 -0.5810 -1.5118 -1.9134
20064SOL    HW262187   1.246   3.322   0.156 -0.3060  0.3374  3.9871
20065SOL     OW62188   0.224   5.904   6.306  0.0893 -0.0418  0.0653
20065SOL    HW162189   0.159   5.869   6.367 -0.1064  0.6028  0.2362
20065SOL    HW262190   0.192   5.879   6.220 -1.7804  2.3922 -0.0667
20066SOL     OW62191   1.146   1.498   6.857  0.2112  0.8140  0.3000
20066SOL    HW162192   1.170   1.410   6.827  1.9580  0.7175  1.7811
20066SOL    HW262193   1.075   1.483   6.919 -0.2289  0.5648 -0.2546
20067SOL     OW62194   4.349   7.451   5.553 -1.0101 -0.5917  0.2207
20067SOL    HW162195   4.406   7.451   5.476 -1.5466 -1.8438 -0.1991
20067SOL    HW262196   4.384   7.382   5.609 -1.8609 -1.1101  0.1325
20068SOL     OW62197   0.312   4.689   1.928  0.2643  0.0298 -0.1633
20068SOL    HW162198   0.383   4.625   1.926 -0.0928 -0.3631 -1.1116
20068SOL    HW262199   0.233   4.636   1.941  0.2120  0.5535  2.0967
20069SOL     OW62200   1.962   4.894   0.223  0.0118 -0.4975  0.6829
20069SOL    HW162201   1.920   4.942   0.295  0.1481  0.5233  0.1048
20069SOL    HW262202   1.890   4.853   0.176 -0.0900 -1.0575  1.3133
20070SOL     OW62203   1.840   5.099   8.094  0.1792 -0.2612 -0.3133
20070SOL    HW162204   1.846   5.123   8.002  0.1362  1.5523  0.1299
20070SOL    HW262205   1.787   5.168   8.134 -0.0705 -1.1853  1.0162
20071SOL     OW62206   4.623   6.970   7.821  0.2726  0.0240 -0.2451
20071SOL    HW162207   4.602   6.952   7.730 -1.1089  0.3754 -0.0105
20071SOL    HW262208   4.699   7.028   7.817  0.2519  0.0047 -1.1669
20072SOL     OW62209   7.315   1.935   5.543  0.1017  0.0131  0.9405
20072SOL    HW162210   7.270   1.909   5.463 -1.3861  1.3019  1.3150
20072SOL    HW262211   7.406   1.950   5.516 -0.2346 -0.1792 -0.3552
20073SOL     OW62212   8.317   1.984   8.414  0.2041  0.1453 -0.9406
20073SOL    HW162213   8.222   1.993   8.426  0.4341  0.7165  0.7996
20073SOL    HW262214   8.340   1.907   8.466  0.7033 -0.0236 -1.4073
20074SOL     OW62215   3.266   2.595   8.237 -0.6069  0.5479 -0.6263
20074SOL    HW162216   3.355   2.628   8.232 -0.2296 -0.2910  0.2290
20074SOL    HW262217   3.211   2.669   8.213  0.2213  1.6361  0.7386
20075SOL     OW62218   7.232   3.723   7.567 -0.1766 -0.5259 -0.8335
20075SOL    HW162219   7.256   3.815   7.577 -0.6989 -0.4778  0.0963
20075SOL    HW262220   7.309   3.682   7.528  0.6809 -0.0043  0.2553
20076SOL     OW62221   0.627   2.672   6.032 -0.6257 -0.2913 -0.0294
20076SOL    HW162222   0.678   2.639   6.107 -1.2784 -1.1602  0.0512
20076SOL    HW262223   0.576   2.596   6.003 -0.5727  0.1146 -1.1987
20077SOL     OW62224   0.861   2.213   1.709  0.0494  0.3222 -0.3750
20077SOL    HW162225   0.769   2.213   1.734 -0.3488  1.1295 -1.7398
20077SOL    HW262226   0.873   2.131   1.660 -0.5965  1.2982 -2.2843
20078SOL     OW62227   8.202   7.214   3.177  0.5618  0.3385 -0.6109
20078SOL    HW162228   8.245   7.231   3.261  1.4748  0.9952 -1.1934
20078SOL    HW262229   8.127   7.274   3.176 -0.3429 -0.7211  0.3523
20079SOL     OW62230   0.625   4.612   4.938  0.5443  0.3937 -0.3346
20079SOL    HW162231   0.609   4.548   4.868 -0.8730  1.0859 -0.6790
20079SOL    HW262232   0.718   4.633   4.930  1.1215 -1.7760 -0.0498
20080SOL     OW62233   5.815   7.758   1.437 -0.0217 -0.0072  0.0359
20080SOL    HW162234   5.803   7.771   1.343 -0.6445 -1.0901 -0.0490
20080SOL    HW262235   5.727   7.769   1.474 -0.0634 -1.0906  0.2878
20081SOL     OW62236   2.478   3.852   5.195  0.4224  0.3499  0.0076
20081SOL    HW162237   2.519   3.849   5.109  0.6349 -1.6375  0.1449
20081SOL    HW262238   2.393   3.809   5.183  0.1222  0.7448  0.6346
20082SOL     OW62239   8.801   4.824   4.108  0.3019  0.5120 -0.1846
20082SOL    HW162240   8.885   4.778   4.102  0.2985  0.0723  2.1911
20082SOL    HW262241   8.822   4.915   4.089  0.8104  0.0180 -2.2026
20083SOL     OW62242   0.161   3.392   5.914  0.1106 -0.8396 -0.0241
20083SOL    HW162243   0.158   3.393   6.010  0.9386 -1.1659  0.0134
20083SOL    HW262244   0.247   3.355   5.893  0.5920  0.6803 -0.8824
20084SOL     OW62245   0.448   3.273   0.855  0.6368 -0.0653 -0.4245
20084SOL    HW162246   0.382   3.337   0.829  1.2287  0.4491 -0.7021
20084SOL    HW262247   0.399   3.193   0.873 -0.6106  1.3641  3.4689
20085SOL     OW62248   0.936   2.544   7.013 -0.2140  0.4595  0.1954
20085SOL    HW162249   0.873   2.477   7.037 -0.4813  0.6010 -0.0918
20085SOL    HW262250   0.898   2.626   7.046 -0.2211  0.5558 -0.0476
20086SOL     OW62251   8.552   4.574   8.802  0.1094 -0.0943  0.0402
20086SOL    HW162252   8.636   4.529   8.800 -0.3229 -0.9025 -0.5312
20086SOL    HW262253   8.527   4.583   8.710  0.2014  1.3674  0.1383
20087SOL     OW62254   3.898   6.268   3.950  0.0212 -0.3153  0.1783
20087SOL    HW162255   3.819   6.316   3.976  0.5171  0.8995 -0.4646
20087SOL    HW262256   3.865   6.192   3.902 -0.8095 -1.1303  1.9387
20088SOL     OW62257   4.837   2.450   0.459 -0.4379  0.4935  0.0220
20088SOL    HW162258   4.899   2.515   0.427 -0.5337  0.5553 -0.0373
20088SOL    HW262259   4.767   2.501   0.500 -0.0880  0.4057  0.7552
20089SOL     OW62260   1.184   8.334   3.618 -0.1347 -0.3466 -0.2648
20089SOL    HW162261   1.203   8.244   3.590 -0.4814 -0.6043  0.3151
20089SOL    HW262262   1.254   8.355   3.680 -2.1272 -1.6695  2.6844
20090SOL     OW62263   8.828   5.981   6.712  0.0262  0.1451 -0.7373
20090SOL    HW162264   8.858   6.020   6.794  0.1417 -1.9179  0.2623
20090SOL    HW262265   8.735   6.003   6.707  0.0540  0.4198 -0.1388
20091SOL     OW62266   4.838   7.401   4.610  0.3072  0.8719 -0.4164
20091SOL    HW162267   4.817   7.434   4.523  2.0588  1.8286 -0.5324
20091SOL    HW262268   4.792   7.459   4.670  0.9089  1.6583 -0.6890
20092SOL     OW62269   7.634   0.696   6.654  0.4338  0.0085 -0.8764
20092SOL    HW162270   7.558   0.659   6.699  2.3662 -1.7943  1.1697
20092SOL    HW262271   7.598   0.732   6.573 -3.0785  2.2435  1.4014
20093SOL     OW62272   3.510   5.742   7.361  0.2462 -0.0893  0.0696
20093SOL    HW162273   3.418   5.744   7.388 -0.7368  2.5466 -2.9065
20093SOL    HW262274   3.557   5.785   7.432 -0.7875 -1.2972  1.5471
20094SOL     OW62275   2.491   2.605   6.176  0.1102 -0.7779 -0.0643
20094SOL    HW162276   2.455   2.685   6.139 -0.6567 -0.6150  1.0005
20094SOL    HW262277   2.503   2.547   6.101  1.5050  0.6190 -0.9894
20095SOL     OW62278   2.684   2.471   6.938  0.2591  0.8201 -0.1514
20095SOL    HW162279   2.773   2.466   6.905  0.1669  0.4548 -0.3523
20095SOL    HW262280   2.691   2.443   7.030  0.5223  1.8838  0.1636
20096SOL     OW62281   0.814   8.759   7.185 -0.5544  0.5994  0.6096
20096SOL    HW162282   0.891   8.713   7.218 -0.6057  0.8095  1.0316
20096SOL    HW262283   0.849   8.824   7.124 -0.4572  0.2231  0.2610
20097SOL     OW62284   1.153   1.638   4.928 -0.1307  0.1703  0.1264
20097SOL    HW162285   1.241   1.671   4.913  1.1829 -1.6452  2.8972
20097SOL    HW262286   1.163   1.543   4.931 -1.8255 -0.0258  2.0112
20098SOL     OW62287   7.453   1.801   2.992  0.3653 -0.0320  0.1524
20098SOL    HW162288   7.486   1.858   3.062  1.7135  1.7455 -1.8037
20098SOL    HW262289   7.480   1.713   3.018  2.4603  0.7939  1.0490
20099SOL     OW62290   6.439   0.182   6.170  0.2093  0.0355 -0.1965
20099SOL    HW162291   6.462   0.246   6.103  0.5567  0.3996  0.2721
20099SOL    HW262292   6.399   0.233   6.240  1.4699 -0.1109  0.6550
20100SOL     OW62293   8.876   2.477   3.644 -0.0294  0.7913 -0.8776
20100SOL    HW162294   8.786   2.475   3.610 -0.2806  1.6785 -0.2865
20100SOL    HW262295   8.871   2.431   3.728 -0.0533  1.3541 -0.5687
20101SOL     OW62296   3.250   8.739   5.458 -0.2537  0.0004  0.1397
20101SOL    HW162297   3.263   8.792   5.537 -1.5213  1.2795 -0.4556
20101SOL    HW262298   3.159   8.708   5.465  0.1592 -1.3162 -0.0099
20102SOL     OW62299   2.699   7.908   3.454  0.0211  0.4341  0.0473
20102SOL    HW162300   2.715   7.922   3.547  1.9950  1.0486 -0.3524
20102SOL    HW262301   2.612   7.946   3.439  0.4873  2.1083  1.2622
20103SOL     OW62302   6.500   4.441   8.111 -0.1780  0.2692 -0.0885
20103SOL    HW162303   6.474   4.450   8.020  1.9638 -0.1974 -0.7896
20103SOL    HW262304   6.566   4.372   8.112  0.0729  0.4628  1.7632
20104SOL     OW62305   2.880   4.426   8.603 -0.1379 -0.0240  0.2519
20104SOL    HW162306   2.850   4.483   8.532  0.2886  0.2514  0.2845
20104SOL    HW262307   2.841   4.463   8.682  0.1658  0.2562  0.2774
20105SOL     OW62308   2.792   6.690   5.168 -0.3825 -0.2084  0.5210
20105SOL    HW162309   2.780   6.644   5.252 -1.2035 -0.7603  0.1141
20105SOL    HW262310   2.879   6.664   5.139  0.8916  1.7564  2.2628
20106SOL     OW62311   5.609   6.496   5.782  0.3689 -0.1116 -0.4430
20106SOL    HW162312   5.534   6.451   5.742 -1.3653  1.4006  0.9660
20106SOL    HW262313   5.663   6.425   5.817 -0.3073 -1.2433 -1.5956
20107SOL     OW62314   3.450   5.911   4.288 -0.3027  0.0645  0.3158
20107SOL    HW162315   3.482   5.847   4.225 -0.7938  0.1735 -0.0543
20107SOL    HW262316   3.526   5.934   4.340  0.1245  0.0269 -0.2862
20108SOL     OW62317   4.314   1.670   0.030 -0.0189  0.0415  0.1601
20108SOL    HW162318   4.284   1.692  -0.059  0.7392  0.7049  0.0541
20108SOL    HW262319   4.406   1.645   0.019  0.3481  1.0117  0.8640
20109SOL     OW62320   2.677   6.255   3.253  0.1241 -0.5485 -0.1924
20109SOL    HW162321   2.588   6.219   3.253 -0.1006 -0.3606  3.2109
20109SOL    HW262322   2.687   6.294   3.166 -2.4009 -2.1665 -1.3364
20110SOL     OW62323   7.944   1.305   5.594  0.1879 -0.1810 -0.3862
20110SOL    HW162324   7.966   1.378   5.536  1.7449  0.5223  0.9898
20110SOL    HW262325   7.865   1.333   5.640  0.2552  0.2571 -0.5324
20111SOL     OW62326   4.245   2.090   3.740 -0.5405 -0.2727 -0.1840
20111SOL    HW162327   4.241   2.133   3.655 -0.9295 -0.7041 -0.3893
20111SOL    HW262328   4.155   2.091   3.772 -0.0652  1.9392  1.2816
20112SOL     OW62329   3.235   6.231   3.980 -0.0826  0.2208  0.3323
20112SOL    HW162330   3.321   6.209   3.944  0.5956  1.0754  1.3632
20112SOL    HW262331   3.246   6.319   4.018 -0.8636 -0.4204  2.1773
20113SOL     OW62332   6.195   3.667   3.956 -0.6139 -0.3228  0.0112
20113SOL    HW162333   6.192   3.755   3.919 -1.0736  0.1966  1.2572
20113SOL    HW262334   6.153   3.674   4.041 -0.5648 -1.7310  0.1834
20114SOL     OW62335   4.478   6.551   1.070 -0.2858 -0.6465 -0.4436
20114SOL    HW162336   4.467   6.617   1.138 -0.4634 -0.5275 -0.5875
20114SOL    HW262337   4.572   6.536   1.066 -0.2641 -0.5562 -0.2654
20115SOL     OW62338   0.419   2.932   5.521  0.3206  0.5063 -0.5883
20115SOL    HW162339   0.393   3.013   5.564 -0.7145  0.4458 -1.0717
20115SOL    HW262340   0.432   2.958   5.429 -0.3329  0.0683 -0.8081
20116SOL     OW62341   4.484   8.453   8.270 -0.2365  0.2758  0.1519
20116SOL    HW162342   4.450   8.509   8.200 -1.1588  0.4903  0.7535
20116SOL    HW262343   4.566   8.495   8.296 -0.5304  0.9100  0.0703
20117SOL     OW62344   0.902   0.636   4.162 -0.4839  0.5029  0.5470
20117SOL    HW162345   0.908   0.701   4.092 -0.9558  0.5671  0.5665
20117SOL    HW262346   0.893   0.552   4.117 -0.7398  0.5394  0.5302
20118SOL     OW62347   8.589   4.604   1.268 -0.1139 -0.0623 -0.1051
20118SOL    HW162348   8.571   4.696   1.288 -0.5158  0.3455 -2.1101
20118SOL    HW262349   8.502   4.564   1.265  0.1204 -0.8617  2.0734
20119SOL     OW62350   0.249   1.099   1.278 -0.2831 -0.3209 -0.3028
20119SOL    HW162351   0.211   1.155   1.210 -0.6849 -0.4494 -0.1906
20119SOL    HW262352   0.339   1.083   1.249 -0.1910  0.3094 -0.3770
20120SOL     OW62353   4.752   8.026   4.163 -0.5019 -0.1465 -0.7587
20120SOL    HW162354   4.719   8.062   4.081 -1.5327  1.7422  0.4056
20120SOL    HW262355   4.692   7.953   4.183 -0.0553 -0.8195 -1.7864
20121SOL     OW62356   2.920   0.149   6.825  0.4461  0.1191  0.0377
20121SOL    HW162357   2.870   0.151   6.743  1.6313  1.8502 -0.7022
20121SOL    HW262358   2.982   0.221   6.817  2.5724 -1.4781  1.2315
20122SOL     OW62359   3.205   8.103   7.178 -0.1646 -0.4256  0.4424
20122SOL    HW162360   3.247   8.117   7.263 -0.1632 -1.3062  0.5915
20122SOL    HW262361   3.176   8.012   7.180 -1.2627 -0.1030 -0.0271
20123SOL     OW62362   7.565   0.807   6.374 -0.2858  0.0784  0.1769
20123SOL    HW162363   7.523   0.891   6.387  1.4135  1.0495 -0.2886
20123SOL    HW262364   7.551   0.788   6.281  0.4122  0.4786 -0.0150
20124SOL     OW62365   4.050   6.009   7.476 -0.4996 -0.3334 -0.0197
20124SOL    HW162366   4.106   5.956   7.420 -0.3763 -0.8767  0.6096
20124SOL    HW262367   3.975   6.032   7.421  1.4063  2.4714 -1.7063
20125SOL     OW62368   5.699   0.900   6.451 -0.3428  0.2806  0.2192
20125SOL    HW162369   5.698   0.900   6.547 -0.0783  0.4457  0.2228
20125SOL    HW262370   5.713   0.808   6.428 -2.3141 -0.0745  0.3055
20126SOL     OW62371   3.326   2.030   6.660 -0.2373 -0.4063  0.2381
20126SOL    HW162372   3.247   2.059   6.705 -0.1273 -0.1573  0.2726
20126SOL    HW262373   3.324   1.935   6.667 -1.7214 -0.6009 -1.7240
20127SOL     OW62374   7.729   1.248   5.860  0.0374  0.3750 -0.8696
20127SOL    HW162375   7.727   1.158   5.828 -0.8510 -0.5482  1.5356
20127SOL    HW262376   7.702   1.242   5.951  0.3456  3.0581 -0.5031
20128SOL     OW62377   5.751   7.204   7.347 -0.7121  0.6456  0.2301
20128SOL    HW162378   5.784   7.116   7.325 -1.7797  0.1576  0.5046
20128SOL    HW262379   5.829   7.260   7.342  0.0541 -0.3605  0.3404
20129SOL     OW62380   0.605   4.340   6.166 -0.1259  0.6692  0.2918
20129SOL    HW162381   0.588   4.311   6.077 -0.1573  0.1397  0.4667
20129SOL    HW262382   0.521   4.334   6.211  0.4788 -2.3058  1.2519
20130SOL     OW62383   5.755   3.694   4.348 -0.1767 -0.3302 -0.6347
20130SOL    HW162384   5.815   3.769   4.344  0.3225 -0.5994  0.9514
20130SOL    HW262385   5.668   3.733   4.352  0.1008  0.2073  0.5601
20131SOL     OW62386   6.721   8.270   0.412 -0.3337  0.2089 -0.1626
20131SOL    HW162387   6.761   8.211   0.476  0.3801  0.4831 -0.3416
20131SOL    HW262388   6.745   8.232   0.327 -0.9013  0.0918 -0.2772
20132SOL     OW62389   2.417   7.569   6.411  0.0225 -0.6625 -0.1525
20132SOL    HW162390   2.509   7.578   6.438 -0.2737  0.1364  0.6078
20132SOL    HW262391   2.395   7.478   6.431  0.6782 -0.8909 -0.4423
20133SOL     OW62392   1.728   4.399   3.047 -0.4585  0.0403  0.3662
20133SOL    HW162393   1.805   4.374   2.995  0.3085 -0.6818  1.8032
20133SOL    HW262394   1.712   4.491   3.023  1.8538  0.7411  1.1807
20134SOL     OW62395   1.814   5.683   5.465 -0.6762 -0.0563 -0.0336
20134SOL    HW162396   1.769   5.606   5.499  0.1421  0.1991  1.7514
20134SOL    HW262397   1.775   5.756   5.513 -1.0563  0.5903 -1.3058
20135SOL     OW62398   1.107   6.263   8.075  0.3286  0.3726 -0.3146
20135SOL    HW162399   1.156   6.233   8.152 -2.2229 -2.6014  0.3859
20135SOL    HW262400   1.040   6.322   8.111 -2.2437 -2.6361  0.3695
20136SOL     OW62401   4.571   7.156   1.295 -0.1162  0.1225 -0.2983
20136SOL    HW162402   4.666   7.149   1.296 -0.1570 -0.5713 -0.6536
20136SOL    HW262403   4.544   7.146   1.386  0.0080 -2.0048 -0.4488
20137SOL     OW62404   0.390   3.410   6.415 -0.3187  0.0208  0.1575
20137SOL    HW162405   0.328   3.423   6.486 -0.2496  1.1954  0.0292
20137SOL    HW262406   0.340   3.364   6.347 -1.5752  2.3472 -0.6008
20138SOL     OW62407   5.742   4.562   0.947 -0.2485 -0.7374  0.0900
20138SOL    HW162408   5.798   4.517   0.883  1.9854  0.1699  1.2988
20138SOL    HW262409   5.752   4.510   1.027  0.6647  0.6195  0.9100
20139SOL     OW62410   2.558   3.160   6.670 -0.1076  0.2184 -0.1663
20139SOL    HW162411   2.468   3.179   6.698  0.2244  0.3892  0.8113
20139SOL    HW262412   2.611   3.175   6.748  0.6762 -0.6864 -0.5153
20140SOL     OW62413   3.908   7.147   5.731  0.1409  0.5496  0.0767
20140SOL    HW162414   3.904   7.062   5.774 -2.1939  0.4035 -0.2767
20140SOL    HW262415   3.918   7.210   5.803 -3.1141  0.2688  0.9261
20141SOL     OW62416   5.107   2.021   2.942 -0.3996  1.5892 -0.1067
20141SOL    HW162417   5.184   2.011   2.885 -1.1511 -0.9822 -0.7846
20141SOL    HW262418   5.142   2.015   3.031  0.1008 -1.6416 -0.3887
20142SOL     OW62419   8.149   1.317   1.387 -0.1230  0.1103 -0.1184
20142SOL    HW162420   8.180   1.227   1.393 -0.5214  0.0584  1.7289
20142SOL    HW262421   8.058   1.310   1.360 -0.3814 -0.0928  0.7936
20143SOL     OW62422   1.320   7.143   4.329  0.0106 -0.0836  0.4690
20143SOL    HW162423   1.366   7.159   4.412  1.9337 -0.5356 -0.4617
20143SOL    HW262424   1.384   7.167   4.262 -0.1995 -3.0348 -0.9090
20144SOL     OW62425   4.982   2.746   7.144  0.3304 -0.3178 -0.2133
20144SOL    HW162426   4.940   2.832   7.144  1.7933  0.4935 -2.2710
20144SOL    HW262427   4.922   2.690   7.095  0.2171  0.0384 -0.4836
20145SOL     OW62428   1.417   1.820   4.201  0.5506  0.1854  0.5141
20145SOL    HW162429   1.372   1.809   4.117  2.8004 -0.3743 -0.7161
20145SOL    HW262430   1.368   1.765   4.262 -1.0021  0.4059 -0.4878
20146SOL     OW62431   6.067   2.115   7.943  0.3279 -0.0043 -0.6007
20146SOL    HW162432   6.152   2.158   7.953  1.5185 -1.9814 -1.5801
20146SOL    HW262433   6.021   2.169   7.878  0.5670  1.4135  0.3656
20147SOL     OW62434   7.657   7.183   4.624  0.4390 -0.1184  0.3229
20147SOL    HW162435   7.633   7.091   4.633 -0.1957 -0.0075 -0.1458
20147SOL    HW262436   7.583   7.230   4.664  0.1513  0.2191 -0.5887
20148SOL     OW62437   5.975   1.280   8.533  0.3438 -0.6467  0.1846
20148SOL    HW162438   5.898   1.278   8.590  0.5496  0.4606  0.5059
20148SOL    HW262439   6.049   1.292   8.592  0.8953 -2.6582 -0.0258
20149SOL     OW62440   4.778   1.276   3.083 -0.4776 -0.1841  0.4562
20149SOL    HW162441   4.747   1.365   3.065 -2.0308 -0.3956  1.8549
20149SOL    HW262442   4.768   1.265   3.177 -2.2182 -2.4918  0.0989
20150SOL     OW62443   8.027   1.364   4.164  0.0160  0.2577  0.0742
20150SOL    HW162444   7.932   1.354   4.169  0.2361 -1.5837  1.6282
20150SOL    HW262445   8.051   1.408   4.245  0.5539 -0.0865  0.1094
20151SOL     OW62446   2.032   6.111   2.129  0.3272 -0.5046  0.5678
20151SOL    HW162447   2.056   6.180   2.191 -1.0666  0.1246  0.4469
20151SOL    HW262448   1.966   6.059   2.176  0.0927 -0.6989  0.0279
20152SOL     OW62449   2.172   6.016   5.097 -0.2550 -0.1399 -0.4172
20152SOL    HW162450   2.192   6.082   5.164  0.7381 -2.0411  1.2642
20152SOL    HW262451   2.112   5.956   5.140 -0.8931 -0.5356 -1.8095
20153SOL     OW62452   0.130   3.662   1.784 -0.0604 -0.5447 -0.0900
20153SOL    HW162453   0.097   3.672   1.694 -0.2262 -0.9594 -0.0752
20153SOL    HW262454   0.054   3.632   1.834 -0.4822  1.4932  0.5808
20154SOL     OW62455   2.079   8.198   4.527 -0.1851  0.6354 -0.1527
20154SOL    HW162456   2.112   8.237   4.446  0.9941  0.3348  0.1574
20154SOL    HW262457   2.145   8.132   4.550 -2.5434 -2.3372 -1.1836
20155SOL     OW62458   5.676   2.069   2.920  0.5289  0.9543  0.5458
20155SOL    HW162459   5.759   2.054   2.966  1.3537  0.4206 -1.0056
20155SOL    HW262460   5.685   2.017   2.840 -0.0892  3.1805 -1.0577
20156SOL     OW62461   8.560   0.683   1.000  0.1984 -0.2653 -0.0925
20156SOL    HW162462   8.649   0.689   0.963  0.6920 -0.7004  0.9879
20156SOL    HW262463   8.506   0.656   0.927  0.8802  0.4078 -0.8767
20157SOL     OW62464   0.139   3.734   4.501  0.2752  0.4992 -0.2096
20157SOL    HW162465   0.053   3.733   4.459  0.3493  1.0968 -0.3876
20157SOL    HW262466   0.142   3.819   4.546 -0.7744 -1.0340  3.0848
20158SOL     OW62467   3.330   4.262   2.740  0.2939  0.2679 -0.3941
20158SOL    HW162468   3.260   4.278   2.804  0.7159  1.4676 -0.2025
20158SOL    HW262469   3.292   4.199   2.679 -0.0808 -1.0021  1.0758
20159SOL     OW62470   6.194   2.650   8.220 -0.0353  0.3902 -0.6893
20159SOL    HW162471   6.198   2.709   8.145  2.0296  0.2374 -0.7613
20159SOL    HW262472   6.257   2.581   8.200  0.9461  0.5919  1.3701
20160SOL     OW62473   4.768   2.245   4.503  0.2812  0.2143 -0.0761
20160SOL    HW162474   4.674   2.251   4.515  0.0944 -0.5960 -1.0536
20160SOL    HW262475   4.790   2.153   4.519  0.9512  0.4376  0.3739
20161SOL     OW62476   0.464   7.533   5.200 -0.6508  0.6620 -0.5053
20161SOL    HW162477   0.416   7.524   5.118  1.0304 -2.0448 -1.3338
20161SOL    HW262478   0.523   7.607   5.184 -0.4409  0.2637 -1.7079
20162SOL     OW62479   5.650   8.319   8.319 -0.7858  0.4030 -0.3849
20162SOL    HW162480   5.595   8.355   8.388 -0.3511 -0.2099  0.2976
20162SOL    HW262481   5.607   8.237   8.295 -0.2777  0.0132  0.0239
20163SOL     OW62482   3.003   6.893   2.064 -0.2563 -0.0710 -0.1935
20163SOL    HW162483   3.017   6.806   2.026  2.3624 -0.0864  0.5835
20163SOL    HW262484   2.967   6.945   1.992 -1.8064 -1.7561 -0.6896
20164SOL     OW62485   2.583   4.441   7.232  0.4724  0.8812 -0.1668
20164SOL    HW162486   2.577   4.533   7.205  0.5313  0.4272 -1.8744
20164SOL    HW262487   2.661   4.408   7.186 -0.6303 -0.4927 -1.1556
20165SOL     OW62488   0.154   7.929   0.753  0.2162 -0.0282  0.4509
20165SOL    HW162489   0.212   7.993   0.795 -1.0393  0.7431  1.0523
20165SOL    HW262490   0.081   7.981   0.720  0.6723 -0.7545 -1.8365
20166SOL     OW62491   7.997   4.325   7.551 -0.3579 -0.3411 -0.9497
20166SOL    HW162492   8.073   4.270   7.570 -0.7819 -1.3834 -2.1131
20166SOL    HW262493   7.961   4.346   7.637  1.9213  1.2421 -0.2846
20167SOL     OW62494   5.079   2.175   1.051 -0.6393 -0.0674 -0.3753
20167SOL    HW162495   5.001   2.160   0.997 -1.7387  0.1203  1.0878
20167SOL    HW262496   5.086   2.271   1.056 -0.5973 -0.0831 -0.1191
20168SOL     OW62497   4.307   8.283   5.921 -0.8178 -0.3602  0.1464
20168SOL    HW162498   4.351   8.205   5.887  0.5118 -0.4660  1.9592
20168SOL    HW262499   4.321   8.279   6.016 -0.0904  2.4212  0.2493
20169SOL     OW62500   1.284   6.565   8.498 -0.0331  0.2744 -0.0695
20169SOL    HW162501   1.209   6.544   8.554 -1.4277  2.3233 -1.0354
20169SOL    HW262502   1.314   6.651   8.529  1.7765 -0.3910  0.1172
20170SOL     OW62503   2.139   2.370   7.442  0.2389 -0.6343  0.2244
20170SOL    HW162504   2.119   2.393   7.533  1.4607 -1.3946  0.7086
20170SOL    HW262505   2.222   2.323   7.447  0.4859 -0.4138 -1.3283
20171SOL     OW62506   1.812   7.435   6.876  0.3295 -0.0147  0.0267
20171SOL    HW162507   1.759   7.454   6.953 -0.9301 -2.9374  0.0001
20171SOL    HW262508   1.900   7.418   6.910 -0.1594 -1.0243  0.8284
20172SOL     OW62509   0.251   3.378   4.501 -0.2343  0.0659 -0.0424
20172SOL    HW162510   0.245   3.284   4.516  0.0357 -0.0789 -0.7889
20172SOL    HW262511   0.184   3.396   4.435 -1.0434  0.5905  0.8922
20173SOL     OW62512   5.799   4.394   5.468 -0.1382 -0.0890  0.0649
20173SOL    HW162513   5.730   4.357   5.523  0.6071 -1.1034  0.3486
20173SOL    HW262514   5.842   4.459   5.523 -1.8427  1.7535 -0.6328
20174SOL     OW62515   0.956   7.296   7.056  0.2677  0.1948  0.0335
20174SOL    HW162516   1.001   7.334   6.980  1.4289  0.7040  0.9545
20174SOL    HW262517   0.867   7.279   7.025  0.6025  0.7960 -1.3134
20175SOL     OW62518   4.275   2.644   7.753 -0.1890 -0.3349 -0.1550
20175SOL    HW162519   4.347   2.664   7.693 -0.3292 -0.0658 -0.2332
20175SOL    HW262520   4.203   2.619   7.696  0.2896 -2.1375 -0.0433
20176SOL     OW62521   2.079   2.414   1.529 -0.0862 -0.3596 -0.4663
20176SOL    HW162522   2.023   2.336   1.528 -0.2291 -0.2946  0.9121
20176SOL    HW262523   2.063   2.456   1.445 -2.7168  0.0644  0.1578
20177SOL     OW62524   7.297   6.987   3.386 -0.5268  0.1550  0.6834
20177SOL    HW162525   7.376   7.035   3.409 -0.1013 -0.6691  1.0100
20177SOL    HW262526   7.257   6.965   3.471 -0.3403 -0.6510  0.5724
20178SOL     OW62527   2.416   7.667   2.952  0.1390 -0.3368 -0.6997
20178SOL    HW162528   2.385   7.686   2.864 -0.0448 -2.1703 -1.0813
20178SOL    HW262529   2.512   7.668   2.944  0.1221 -1.2177 -1.1084
20179SOL     OW62530   2.621   7.500   0.627 -0.6792 -0.4236  0.2249
20179SOL    HW162531   2.625   7.439   0.553 -2.8877 -1.8035  1.1439
20179SOL    HW262532   2.578   7.578   0.592 -0.9759 -0.7564 -0.1557
20180SOL     OW62533   3.008   0.320   3.847 -0.2416 -0.1366 -0.0437
20180SOL    HW162534   2.932   0.273   3.882 -0.4026 -0.2948 -0.6030
20180SOL    HW262535   3.083   0.276   3.886 -0.4374  0.2330  0.7806
20181SOL     OW62536   1.203   7.532   8.489  0.5688 -0.8910 -0.7188
20181SOL    HW162537   1.200   7.599   8.557  2.6986 -0.0731 -1.3383
20181SOL    HW262538   1.274   7.474   8.516 -0.1598 -1.9449 -1.0361
20182SOL     OW62539   0.730   1.171   7.339  0.8367 -0.1520 -0.2762
20182SOL    HW162540   0.718   1.221   7.420 -0.5878 -0.2788 -0.3784
20182SOL    HW262541   0.760   1.085   7.367 -0.0718 -0.3346  0.1713
20183SOL     OW62542   2.162   0.405   2.851  0.4502  0.5877  0.3188
20183SOL    HW162543   2.073   0.408   2.816  0.7637 -1.3398 -0.7886
20183SOL    HW262544   2.150   0.393   2.945 -0.4136  2.7360  0.5371
20184SOL     OW62545   0.855   8.374   4.824  0.1058  0.2477  0.6932
20184SOL    HW162546   0.881   8.347   4.735 -1.4442  0.3537  0.1707
20184SOL    HW262547   0.916   8.443   4.847  1.5645 -0.8807  0.3768
20185SOL     OW62548   3.170   0.016   6.774 -0.3844 -0.2811  0.1812
20185SOL    HW162549   3.188   0.085   6.838  1.1693 -0.2153 -0.2822
20185SOL    HW262550   3.078  -0.006   6.787 -0.7004  1.3258  0.8850
20186SOL     OW62551   8.190   1.644   5.414  0.6558  0.3039 -0.1517
20186SOL    HW162552   8.189   1.656   5.319  1.7843 -1.0917 -0.3813
20186SOL    HW262553   8.098   1.639   5.439  0.3191  1.5517 -1.0292
20187SOL     OW62554   4.159   1.404   4.492 -0.0748 -0.5353  0.3030
20187SOL    HW162555   4.190   1.479   4.542  0.3893  0.0337 -0.8120
20187SOL    HW262556   4.226   1.388   4.426 -0.9120 -0.9179 -0.4940
20188SOL     OW62557   3.162   5.707   4.822 -0.4148 -0.6564 -1.0432
20188SOL    HW162558   3.085   5.656   4.798 -0.8145 -0.5808  0.0338
20188SOL    HW262559   3.230   5.641   4.840 -0.2474 -0.7249 -1.8882
20189SOL     OW62560   2.280   3.367   6.033  0.5312  0.2274 -0.2780
20189SOL    HW162561   2.359   3.421   6.025 -0.5352  2.0201  0.5730
20189SOL    HW262562   2.246   3.387   6.120 -1.6162  0.6341 -1.1500
20190SOL     OW62563   6.220   2.064   0.252 -1.1646  0.3269 -0.0691
20190SOL    HW162564   6.195   2.121   0.179 -1.4208 -0.4631 -0.6094
20190SOL    HW262565   6.186   1.978   0.228 -0.5697 -0.1123  0.6202
20191SOL     OW62566   3.193   3.504   7.559 -0.6866 -0.0443 -0.0010
20191SOL    HW162567   3.113   3.536   7.600 -1.2045  0.1786 -1.1403
20191SOL    HW262568   3.255   3.576   7.569 -0.2845 -0.5783  1.7382
20192SOL     OW62569   8.377   4.856   8.242  0.3062 -0.3111 -0.1859
20192SOL    HW162570   8.348   4.787   8.182 -0.5234 -0.8741  0.8142
20192SOL    HW262571   8.299   4.876   8.294  0.8841  0.4824  0.3883
20193SOL     OW62572   6.236   8.041   1.983  0.7453  0.1216 -0.1960
20193SOL    HW162573   6.153   8.017   2.024  0.4307  1.3895 -0.0341
20193SOL    HW262574   6.289   7.961   1.985  0.2058 -0.2265  1.3840
20194SOL     OW62575   2.423   8.338   4.718  0.7720  0.3238 -0.5479
20194SOL    HW162576   2.420   8.243   4.701  0.7729  0.0848  0.7215
20194SOL    HW262577   2.441   8.377   4.632  1.5243 -0.8721 -0.9573
20195SOL     OW62578   5.799   4.329   8.085 -0.1161 -0.6822  0.1544
20195SOL    HW162579   5.803   4.346   7.991  1.6048 -1.5651  0.0182
20195SOL    HW262580   5.853   4.397   8.124 -0.6284 -0.4621  0.4852
20196SOL     OW62581   5.119   0.944   3.432 -0.0806 -0.3480 -0.0376
20196SOL    HW162582   5.052   0.968   3.496 -0.5377  2.5946 -1.4846
20196SOL    HW262583   5.070   0.904   3.360  0.2707 -2.1801  0.6769
20197SOL     OW62584   7.634   2.873   4.737 -0.1654 -0.1211 -0.1098
20197SOL    HW162585   7.539   2.881   4.729 -0.0205  0.5688 -1.5821
20197SOL    HW262586   7.666   2.885   4.647  1.4338  1.7809  0.6412
20198SOL     OW62587   3.410   0.105   7.209 -0.0869  0.4357 -0.5952
20198SOL    HW162588   3.367   0.022   7.187  1.1220 -0.1976 -0.6387
20198SOL    HW262589   3.488   0.080   7.259  0.3396  1.5390 -0.6649
20199SOL     OW62590   4.306   7.357   0.451  0.1134  0.9321 -0.2880
20199SOL    HW162591   4.323   7.432   0.508  1.1330  0.5735 -0.0873
20199SOL    HW262592   4.387   7.305   0.455 -0.3402  0.1464 -0.9137
20200SOL     OW62593   3.782   7.622   5.117  0.0191 -0.6750 -0.7719
20200SOL    HW162594   3.701   7.611   5.167  0.8203  2.1005  1.4336
20200SOL    HW262595   3.768   7.702   5.066  1.4544  0.0713 -0.0540
20201SOL     OW62596   8.675   3.313   0.863  0.1570 -0.0928  0.3806
20201SOL    HW162597   8.761   3.356   0.868  0.2457 -0.1777 -0.2415
20201SOL    HW262598   8.667   3.288   0.771 -1.0599  0.9944  0.1653
20202SOL     OW62599   7.317   0.673   3.332 -0.3002 -0.2544  0.2100
20202SOL    HW162600   7.300   0.631   3.247 -0.2301  0.3511 -0.1108
20202SOL    HW262601   7.304   0.767   3.315  0.9785  0.0014  0.5404
20203SOL     OW62602   2.944   7.026   1.488  0.3526 -0.2879  0.1579
20203SOL    HW162603   2.932   7.058   1.399 -0.4952 -1.2058 -0.0733
20203SOL    HW262604   2.879   7.073   1.540 -0.3910 -1.0810 -0.0467
20204SOL     OW62605   4.283   7.778   1.765  0.0543 -0.2479  0.8024
20204SOL    HW162606   4.266   7.779   1.859 -0.2271 -1.3340  0.7762
20204SOL    HW262607   4.197   7.770   1.725  0.0213  1.8039  0.3659
20205SOL     OW62608   7.567   2.405   0.140 -0.2871 -0.0263 -0.0377
20205SOL    HW162609   7.536   2.474   0.199  1.3344  0.3028  0.5013
20205SOL    HW262610   7.662   2.404   0.153  0.0515 -0.4064 -2.1693
20206SOL     OW62611   3.771   1.402   0.980  0.1490  0.6551  0.2007
20206SOL    HW162612   3.739   1.374   0.894  0.3334 -0.1963  0.4079
20206SOL    HW262613   3.708   1.366   1.042  0.2164  0.9600  0.4477
20207SOL     OW62614   4.562   8.634   1.059  0.2380 -0.4622  0.2015
20207SOL    HW162615   4.499   8.616   1.128  0.5287 -0.4327  0.4785
20207SOL    HW262616   4.573   8.729   1.061  0.8152 -0.5309  0.6280
20208SOL     OW62617   4.995   0.445   5.080  0.0903  0.3999  0.7091
20208SOL    HW162618   5.065   0.461   5.144 -2.3591 -1.0711  4.0392
20208SOL    HW262619   4.935   0.518   5.091 -0.7994 -0.3229  0.7412
20209SOL     OW62620   7.636   1.640   3.851  0.1904 -0.1122 -0.1926
20209SOL    HW162621   7.571   1.650   3.781  0.1863 -1.6043 -0.4329
20209SOL    HW262622   7.613   1.558   3.894  2.5011 -1.2451 -0.9414
20210SOL     OW62623   3.828   0.857   5.761  0.3047 -0.1181 -0.5277
20210SOL    HW162624   3.892   0.860   5.691 -1.6681  0.8359 -2.4303
20210SOL    HW262625   3.872   0.897   5.836  1.4659  1.9102 -2.1950
20211SOL     OW62626   5.925   5.803   1.372 -0.2243 -0.2764  0.0479
20211SOL    HW162627   5.902   5.828   1.282  0.0027  1.4397  0.4263
20211SOL    HW262628   5.895   5.713   1.380 -0.9484 -0.2163 -1.5062
20212SOL     OW62629   0.525   8.547   5.105 -0.3983  0.0924  0.4601
20212SOL    HW162630   0.599   8.493   5.131 -0.8989 -0.7922  0.1101
20212SOL    HW262631   0.558   8.637   5.107  1.1338 -0.3777 -1.1462
20213SOL     OW62632   5.141   4.919   8.488 -0.2946 -0.2946 -0.6390
20213SOL    HW162633   5.121   4.830   8.517  0.4293 -0.2664 -0.0472
20213SOL    HW262634   5.104   4.924   8.399 -0.4989 -1.1217 -0.6060
20214SOL     OW62635   1.263   3.720   6.733  0.6127  0.4158 -0.1671
20214SOL    HW162636   1.282   3.678   6.650 -1.8392 -0.5522 -0.3372
20214SOL    HW262637   1.203   3.792   6.711 -0.4324 -0.1305  0.7555
20215SOL     OW62638   0.479   0.783   8.406 -0.3490 -0.2026  0.1508
20215SOL    HW162639   0.420   0.708   8.415  0.6682 -1.2278 -1.2165
20215SOL    HW262640   0.421   0.859   8.411 -1.8397 -1.1642 -1.2417
20216SOL     OW62641   5.090   7.584   8.112  0.3154  0.0349  0.3658
20216SOL    HW162642   5.000   7.596   8.083 -0.1043 -0.5183  1.3643
20216SOL    HW262643   5.107   7.659   8.169  0.8876  0.7344 -0.6871
20217SOL     OW62644   2.900   5.734   4.469  0.6424 -0.3395 -0.0975
20217SOL    HW162645   2.844   5.674   4.518 -2.3876  2.8004  0.6506
20217SOL    HW262646   2.888   5.819   4.511  1.4545  1.6602 -3.5157
20218SOL     OW62647   7.494   1.472   2.464 -0.4076  0.2395 -0.1643
20218SOL    HW162648   7.584   1.492   2.439 -0.0607  1.0909  1.6119
20218SOL    HW262649   7.479   1.384   2.431  1.1151  0.0488 -0.4137
20219SOL     OW62650   0.509   2.916   8.032  0.2095 -0.3800 -0.5919
20219SOL    HW162651   0.571   2.990   8.028  0.9272 -0.8614  0.9726
20219SOL    HW262652   0.525   2.876   8.117 -1.5553 -1.1619 -0.5900
20220SOL     OW62653   6.764   6.606   5.080  0.0490  0.3164  0.0222
20220SOL    HW162654   6.763   6.546   5.005 -0.0507 -1.5414  1.4319
20220SOL    HW262655   6.847   6.588   5.124 -0.5935  0.2129  1.2336
20221SOL     OW62656   0.309   1.471   4.698  0.7350 -0.2204  0.0950
20221SOL    HW162657   0.391   1.443   4.657  0.8691  2.6014 -1.8523
20221SOL    HW262658   0.251   1.491   4.625 -0.7079  0.5498  1.3876
20222SOL     OW62659   1.393   7.093   8.000 -0.0289 -0.5478 -0.2319
20222SOL    HW162660   1.486   7.084   8.020 -0.4011 -0.9001  1.4641
20222SOL    HW262661   1.383   7.181   7.965  1.0225 -0.7157 -0.9835
20223SOL     OW62662   3.939   7.648   4.238 -0.3156  0.3363  0.1429
20223SOL    HW162663   3.881   7.723   4.252 -0.9249  0.6301 -3.2225
20223SOL    HW262664   4.026   7.686   4.229 -0.5921  0.6846 -1.3254
20224SOL     OW62665   2.557   5.610   5.094  0.3194 -0.3822 -0.1581
20224SOL    HW162666   2.550   5.667   5.017  0.8558  2.2663  1.6339
20224SOL    HW262667   2.466   5.595   5.121  0.2067  0.7778  0.1285
20225SOL     OW62668   5.312   5.340   6.276 -0.0153  0.1682  0.1615
20225SOL    HW162669   5.248   5.272   6.296 -0.6757  0.7254  0.0000
20225SOL    HW262670   5.369   5.342   6.352  0.7596 -1.3842 -0.3413
20226SOL     OW62671   1.148   0.406   0.003  0.0669  0.1215  0.1972
20226SOL    HW162672   1.067   0.366   0.036  0.7021 -1.6922 -0.2815
20226SOL    HW262673   1.120   0.460  -0.071 -0.7530 -0.1226  0.3133
20227SOL     OW62674   6.854   7.621   7.574 -0.1996 -0.0218 -0.4296
20227SOL    HW162675   6.777   7.642   7.522 -0.2747  0.6763 -0.0376
20227SOL    HW262676   6.857   7.688   7.642  0.0958 -0.7236  0.2606
20228SOL     OW62677   5.600   7.942   3.821  0.2025 -0.0131 -0.0012
20228SOL    HW162678   5.535   7.963   3.889  0.4332 -1.6093  0.7532
20228SOL    HW262679   5.569   7.860   3.784  2.4316 -1.5420  1.2806
20229SOL     OW62680   2.138   2.214   5.143 -0.0088  0.2111 -0.7228
20229SOL    HW162681   2.178   2.128   5.131 -3.2500 -1.7630  1.1110
20229SOL    HW262682   2.045   2.199   5.126 -0.4889  3.8489 -2.0943
20230SOL     OW62683   1.111   5.160   3.659 -0.4720  0.2371 -0.2939
20230SOL    HW162684   1.169   5.175   3.734  1.4526  0.0055 -1.6683
20230SOL    HW262685   1.066   5.243   3.646  0.1975  0.6988  0.2756
20231SOL     OW62686   6.003   6.112   2.683 -0.6783  0.7630  0.2106
20231SOL    HW162687   5.912   6.081   2.682 -0.9426  1.5125  0.3333
20231SOL    HW262688   6.002   6.188   2.741  0.3081 -0.0056  1.2867
20232SOL     OW62689   3.774   7.932   3.993 -0.1153  0.5487 -0.1164
20232SOL    HW162690   3.869   7.923   3.990  0.0511  2.2507 -2.5375
20232SOL    HW262691   3.758   8.011   4.043 -0.1855  0.8459 -0.6020
20233SOL     OW62692   0.044   4.860   1.152 -0.7553  0.0826  0.4929
20233SOL    HW162693   0.032   4.769   1.128 -1.7166  0.5879 -1.0700
20233SOL    HW262694  -0.025   4.877   1.217  0.4956 -0.7137  2.0956
20234SOL     OW62695   6.602   3.472   5.392 -0.4788  0.3693  0.1370
20234SOL    HW162696   6.600   3.564   5.418 -0.9922  0.6783 -0.9236
20234SOL    HW262697   6.574   3.472   5.301 -0.1175 -0.8080  0.0054
20235SOL     OW62698   5.484   5.211   7.241  0.2160  0.1285  0.3119
20235SOL    HW162699   5.515   5.133   7.286  0.7868  1.6534  2.7660
20235SOL    HW262700   5.563   5.265   7.230 -0.1899  0.4556 -1.1815
20236SOL     OW62701   1.005   5.403   0.744 -0.4414 -0.4935 -0.2536
20236SOL    HW162702   1.061   5.349   0.688  0.4300  0.5233 -0.3978
20236SOL    HW262703   0.973   5.343   0.811  3.5447 -0.5763  1.8952
20237SOL     OW62704   4.166   3.120   7.583  0.3151  0.1234  0.1299
20237SOL    HW162705   4.154   3.079   7.498  2.6397 -0.3043 -0.0764
20237SOL    HW262706   4.082   3.110   7.628 -0.3807 -1.2929 -1.4076
20238SOL     OW62707   3.039   3.435   6.525  0.3132 -0.2531  0.1308
20238SOL    HW162708   3.128   3.401   6.532  0.9915  1.1935 -0.9784
20238SOL    HW262709   3.015   3.422   6.433 -1.2085 -1.9226  0.6974
20239SOL     OW62710   4.041   7.290   3.633 -0.1445 -0.0430  0.5988
20239SOL    HW162711   4.025   7.338   3.715  0.0974  0.4927  0.3389
20239SOL    HW262712   4.001   7.345   3.565 -2.6113 -1.6758  0.5783
20240SOL     OW62713   6.273   7.612   7.980  0.2591  0.0119  0.2938
20240SOL    HW162714   6.306   7.653   7.901  0.5118  1.5500  1.1508
20240SOL    HW262715   6.180   7.635   7.982  0.5640  1.3098  1.1802
20241SOL     OW62716   7.830   6.578   4.138 -0.3818 -0.2993  0.4423
20241SOL    HW162717   7.892   6.505   4.141  1.4614  1.0457 -1.7244
20241SOL    HW262718   7.871   6.646   4.191 -0.1643  0.4661 -0.6888
20242SOL     OW62719   2.096   1.880   4.603  0.1171 -0.0847  0.3702
20242SOL    HW162720   2.068   1.907   4.515  1.5861 -1.0295 -0.4414
20242SOL    HW262721   2.181   1.838   4.588 -0.5725 -2.2105  1.9668
20243SOL     OW62722   0.168   5.288   4.992  0.2825 -0.0443 -0.4392
20243SOL    HW162723   0.254   5.321   5.017  0.0802 -0.6450  1.2482
20243SOL    HW262724   0.167   5.292   4.897  0.9406  2.9887 -0.4200
20244SOL     OW62725   1.196   4.497   5.028  0.7064  0.3855  0.1477
20244SOL    HW162726   1.290   4.495   5.046  0.5533 -1.3383  0.9556
20244SOL    HW262727   1.158   4.435   5.090 -0.8218  0.1242 -0.9763
20245SOL     OW62728   7.906   5.664   8.693  0.1405  0.3666  0.0305
20245SOL    HW162729   7.826   5.642   8.741  0.0953  1.8615  0.6760
20245SOL    HW262730   7.876   5.714   8.617  0.4011  0.0666 -0.2752
20246SOL     OW62731   3.422   0.210   2.666  0.3680 -0.0307 -0.1053
20246SOL    HW162732   3.464   0.251   2.591  0.8536 -0.2053  0.0684
20246SOL    HW262733   3.370   0.280   2.706  1.0019  0.3627  0.0506
20247SOL     OW62734   6.704   4.636   7.846  0.1368  0.1779  0.4849
20247SOL    HW162735   6.652   4.676   7.917  1.7004  0.4653  1.5237
20247SOL    HW262736   6.714   4.545   7.873  0.1216  0.1047  0.2425
20248SOL     OW62737   3.763   4.302   5.770 -0.3013  0.1037  0.5567
20248SOL    HW162738   3.834   4.358   5.740 -0.0813 -0.6787 -0.4615
20248SOL    HW262739   3.806   4.236   5.825  0.2054 -1.7369 -1.8490
20249SOL     OW62740   6.010   1.141   2.189  0.0253  0.1762  0.5670
20249SOL    HW162741   5.917   1.135   2.211 -0.3537 -1.2247 -1.1828
20249SOL    HW262742   6.030   1.056   2.149  1.8217  0.8143  0.0276
20250SOL     OW62743   3.579   7.055   4.181  0.1166 -0.4791  0.1445
20250SOL    HW162744   3.665   7.092   4.203 -0.4851 -0.2318  2.2887
20250SOL    HW262745   3.532   7.128   4.139 -0.2347  0.5216  2.1860
20251SOL     OW62746   0.167   0.653   0.107 -0.1043 -0.8076  0.0342
20251SOL    HW162747   0.223   0.728   0.125  1.2389 -1.9213  0.7267
20251SOL    HW262748   0.134   0.668   0.019 -0.1324  0.7375  0.2837
20252SOL     OW62749   5.890   6.047   4.761  0.2646 -0.1365 -0.1824
20252SOL    HW162750   5.822   6.022   4.699  0.7077  0.3412 -0.8766
20252SOL    HW262751   5.948   6.106   4.711  0.8095 -0.0041  0.5849
20253SOL     OW62752   5.277   1.186   4.153 -0.0288 -0.6865 -0.4640
20253SOL    HW162753   5.363   1.193   4.110  0.6738 -1.2241  0.7990
20253SOL    HW262754   5.292   1.128   4.228 -1.3253 -0.1729  0.2324
20254SOL     OW62755   1.094   7.445   3.128  0.6346  0.4397  0.1776
20254SOL    HW162756   1.179   7.470   3.091  0.9216 -0.6066  0.1034
20254SOL    HW262757   1.034   7.446   3.054  0.6629  0.7953  0.1563
20255SOL     OW62758   3.631   8.724   7.580  0.0404  0.4382  0.1371
20255SOL    HW162759   3.624   8.636   7.618  1.6496 -0.5476 -1.6623
20255SOL    HW262760   3.540   8.749   7.562 -0.3923 -1.6509 -0.8965
20256SOL     OW62761   2.123   3.897   0.026 -0.2534  0.3525 -0.1648
20256SOL    HW162762   2.080   3.903  -0.060  1.3402 -2.4399 -1.2963
20256SOL    HW262763   2.207   3.940   0.013  0.7618 -1.6895 -0.6363
20257SOL     OW62764   2.303   3.266   6.874 -0.2839  0.5165  0.1227
20257SOL    HW162765   2.262   3.187   6.910  0.5143  0.3680  0.7228
20257SOL    HW262766   2.324   3.319   6.951  3.8313 -0.9353  0.2499
20258SOL     OW62767   4.951   3.532   2.925 -0.2465  0.2484  0.0451
20258SOL    HW162768   4.867   3.560   2.888 -1.2660 -1.3925  0.9908
20258SOL    HW262769   4.957   3.440   2.902  0.1369 -0.2602  2.0352
20259SOL     OW62770   5.287   5.783   7.657 -0.0101 -0.2608  0.4799
20259SOL    HW162771   5.293   5.721   7.584  1.0783 -0.5104  0.7655
20259SOL    HW262772   5.246   5.861   7.619  1.0929 -0.1593 -0.5598
20260SOL     OW62773   0.258   8.141   1.397 -0.2918  0.6506  0.4492
20260SOL    HW162774   0.346   8.158   1.431  0.2677 -0.1034 -0.5580
20260SOL    HW262775   0.223   8.227   1.375 -0.2704  1.0670  1.9026
20261SOL     OW62776   5.797   7.485   3.698 -0.5092 -0.5765  0.1874
20261SOL    HW162777   5.875   7.430   3.710  0.8219  0.9204 -1.0216
20261SOL    HW262778   5.804   7.516   3.607 -2.1251  0.2107  0.2969
20262SOL     OW62779   8.755   7.268   6.133  0.7018  0.0965 -0.1230
20262SOL    HW162780   8.808   7.337   6.172  0.7071  0.7504 -1.2563
20262SOL    HW262781   8.726   7.216   6.207  1.6299  0.6487  0.6523
20263SOL     OW62782   0.753   1.262   6.789 -0.1449  0.8593  0.4650
20263SOL    HW162783   0.836   1.280   6.747 -0.5190 -1.0850 -1.2341
20263SOL    HW262784   0.773   1.197   6.856 -0.2756  0.3852  0.0509
20264SOL     OW62785   0.708   6.538   1.731 -0.4536 -0.0141  0.2771
20264SOL    HW162786   0.716   6.633   1.722  0.1478 -0.1096 -0.2029
20264SOL    HW262787   0.723   6.522   1.825  2.3773  0.1028 -0.0784
20265SOL     OW62788   1.602   3.027   8.119 -0.1746  0.4921 -0.0733
20265SOL    HW162789   1.691   3.022   8.155 -0.3622  1.2074  0.5092
20265SOL    HW262790   1.613   3.071   8.035  0.0376  0.4371 -0.0770
20266SOL     OW62791   0.364   1.069   4.941  0.0814 -0.2135  0.6451
20266SOL    HW162792   0.435   1.117   4.897  1.0151 -0.4372  1.8603
20266SOL    HW262793   0.356   1.112   5.026  0.3690 -1.6670  1.4341
20267SOL     OW62794   4.379   3.638   8.347 -0.2412 -0.1576 -0.2463
20267SOL    HW162795   4.290   3.604   8.342  0.4014 -2.0851  0.7321
20267SOL    HW262796   4.408   3.642   8.256 -0.8657 -0.7882 -0.4794
20268SOL     OW62797   6.850   3.595   0.619  0.4828 -0.1369  0.5687
20268SOL    HW162798   6.818   3.591   0.709  1.0321 -2.4523  0.7065
20268SOL    HW262799   6.935   3.551   0.621 -0.5896 -2.5362 -1.4895
20269SOL     OW62800   1.860   1.322   7.599 -0.4176 -0.2432 -0.2673
20269SOL    HW162801   1.850   1.390   7.665  2.3089  0.4771 -0.4995
20269SOL    HW262802   1.875   1.242   7.650  3.8504  0.6350  0.2348
20270SOL     OW62803   0.981   4.614   8.065 -0.2241  0.5170  0.5942
20270SOL    HW162804   0.929   4.535   8.081 -0.3687  0.5382  0.2398
20270SOL    HW262805   1.071   4.583   8.060 -0.4069  0.1603 -0.9774
20271SOL     OW62806   3.432   8.639   1.510 -0.6766 -0.1001 -0.2077
20271SOL    HW162807   3.404   8.647   1.602  0.3480 -0.2309  0.1360
20271SOL    HW262808   3.523   8.670   1.511 -0.7790  0.2554 -1.2592
20272SOL     OW62809   6.774   4.807   4.050 -0.1159 -0.1812 -0.0539
20272SOL    HW162810   6.832   4.752   3.998 -0.1221  0.9078 -1.2713
20272SOL    HW262811   6.702   4.749   4.074 -0.5525 -0.5404 -2.0169
20273SOL     OW62812   5.455   3.741   8.195 -0.0944 -0.7011  0.7237
20273SOL    HW162813   5.439   3.703   8.109  0.0970 -0.4414  0.5701
20273SOL    HW262814   5.467   3.835   8.178  0.5015 -0.7265  0.9612
20274SOL     OW62815   8.177   0.879   4.979  0.0276 -0.1493 -0.4545
20274SOL    HW162816   8.238   0.905   5.048  0.6525 -1.7352 -0.3512
20274SOL    HW262817   8.232   0.840   4.911 -0.8410 -1.7519 -0.2971
20275SOL     OW62818   4.307   4.373   1.917  0.0346  0.0513 -0.1221
20275SOL    HW162819   4.345   4.461   1.923 -0.5163  0.3279 -0.5535
20275SOL    HW262820   4.298   4.358   1.822 -2.6468  0.7713 -0.0677
20276SOL     OW62821   1.395   0.071   0.606  0.3469 -0.0240  0.1868
20276SOL    HW162822   1.363   0.066   0.516 -0.3553 -0.1896  0.4389
20276SOL    HW262823   1.481   0.030   0.603  0.9428  1.2237 -0.6832
20277SOL     OW62824   7.478   4.667   7.148 -0.1037  0.1066  0.1135
20277SOL    HW162825   7.490   4.575   7.171 -0.7709  0.1969  0.8966
20277SOL    HW262826   7.554   4.690   7.095  0.6874 -0.5642  0.9488
20278SOL     OW62827   7.861   8.108   2.509 -0.5252  0.0611 -0.0042
20278SOL    HW162828   7.868   8.200   2.483 -3.7180  0.2422 -0.5593
20278SOL    HW262829   7.903   8.060   2.439  0.5403  1.0321 -0.0671
20279SOL     OW62830   0.511   0.651   4.897 -0.0660 -0.3349 -0.1006
20279SOL    HW162831   0.478   0.590   4.963  0.4943 -1.2896 -0.6773
20279SOL    HW262832   0.580   0.603   4.852  0.6691  0.8851 -0.3152
20280SOL     OW62833   8.730   0.317   6.550  0.3531  0.0422 -0.0047
20280SOL    HW162834   8.681   0.307   6.632  0.0296 -1.3051 -0.3361
20280SOL    HW262835   8.673   0.279   6.483  0.6502  1.0612 -0.8528
20281SOL     OW62836   6.676   7.507   2.847 -0.2271 -0.2745  0.3617
20281SOL    HW162837   6.746   7.573   2.844 -0.2084 -0.2503  1.0160
20281SOL    HW262838   6.712   7.438   2.903  0.3809 -1.5989 -1.5765
20282SOL     OW62839   4.324   1.733   5.407 -0.6132 -0.2844  0.2957
20282SOL    HW162840   4.319   1.650   5.456 -1.3058 -0.8398 -0.6898
20282SOL    HW262841   4.344   1.798   5.474  1.2830 -1.4201  0.9088
20283SOL     OW62842   6.222   0.368   5.084  0.1039 -0.0146 -0.5532
20283SOL    HW162843   6.213   0.305   5.156  0.1693 -0.7181 -1.1528
20283SOL    HW262844   6.137   0.366   5.040 -1.2714  3.0515  1.5652
20284SOL     OW62845   4.020   0.983   4.469 -0.0216  0.3142  0.1675
20284SOL    HW162846   3.948   1.011   4.412  0.5098  1.1906 -0.0936
20284SOL    HW262847   4.010   0.888   4.476 -0.9408  0.3783 -0.2236
20285SOL     OW62848   6.129   7.450   4.231  0.1291  0.6352 -0.1372
20285SOL    HW162849   6.155   7.533   4.191  0.3009  0.8807  0.4718
20285SOL    HW262850   6.211   7.411   4.261  0.2281 -0.4315 -1.6386
20286SOL     OW62851   3.132   5.471   8.034 -0.2093 -0.3348  0.2289
20286SOL    HW162852   3.103   5.406   7.970  1.7017 -1.3396  0.3031
20286SOL    HW262853   3.194   5.526   7.987 -0.2066  0.0959  0.7252
20287SOL     OW62854   7.037   7.905   4.642  0.1894 -0.1243 -0.5950
20287SOL    HW162855   7.128   7.928   4.627  0.2461 -0.0820 -0.2013
20287SOL    HW262856   7.005   7.876   4.557  0.8868 -1.2665 -0.4864
20288SOL     OW62857   3.771   5.169   5.433 -0.3040 -0.0916 -0.2565
20288SOL    HW162858   3.767   5.109   5.508  0.6097 -0.1307 -0.2202
20288SOL    HW262859   3.852   5.218   5.447  0.0202 -0.2889 -1.3557
20289SOL     OW62860   7.295   3.244   2.595 -0.1362  0.0257 -0.1137
20289SOL    HW162861   7.279   3.208   2.508 -0.6136  1.2982 -0.5815
20289SOL    HW262862   7.374   3.200   2.625  0.6141  0.2860 -1.6164
20290SOL     OW62863   0.903   3.625   1.673  0.2662 -0.3839  0.3481
20290SOL    HW162864   0.851   3.706   1.672  0.2327 -0.3662  1.4309
20290SOL    HW262865   0.907   3.597   1.582 -0.5603  0.3083  0.0870
20291SOL     OW62866   0.218   3.039   7.058 -0.2659  0.8078  0.1385
20291SOL    HW162867   0.211   3.008   6.968 -1.5493  0.4736  0.3432
20291SOL    HW262868   0.173   3.124   7.058 -0.1629  0.8640  0.4455
20292SOL     OW62869   8.718   4.085   2.774  0.4372  0.1167  0.5409
20292SOL    HW162870   8.781   4.120   2.711  1.2348 -0.2723  1.0981
20292SOL    HW262871   8.701   3.996   2.744  0.3145  0.1478  0.5153
20293SOL     OW62872   3.461   6.150   6.656  0.2067  0.2180  0.0929
20293SOL    HW162873   3.431   6.080   6.714  1.1866  0.2900  0.7146
20293SOL    HW262874   3.474   6.108   6.571 -1.1057  0.0783 -0.0500
20294SOL     OW62875   2.803   4.494   1.242 -0.0638 -0.3007  0.1145
20294SOL    HW162876   2.893   4.468   1.222  0.3892 -0.1393  1.8125
20294SOL    HW262877   2.767   4.523   1.158  1.6110  0.0984 -0.4971
20295SOL     OW62878   6.441   6.283   2.121  0.0760  0.4208  0.4143
20295SOL    HW162879   6.465   6.273   2.028  1.1348 -0.1105  0.7247
20295SOL    HW262880   6.521   6.260   2.168 -0.4833  0.6032  1.4676
20296SOL     OW62881   5.763   0.970   8.361 -0.1854 -0.6329  1.0165
20296SOL    HW162882   5.683   0.923   8.338 -0.4363 -0.8034  2.1916
20296SOL    HW262883   5.745   1.061   8.338 -0.0072 -0.9445 -0.4706
20297SOL     OW62884   3.060   8.684   0.049 -0.3754 -1.2006  0.6117
20297SOL    HW162885   3.054   8.591   0.071 -0.2514 -3.0903 -5.5365
20297SOL    HW262886   3.141   8.692  -0.002  0.0018  2.5610  1.4660
20298SOL     OW62887   4.676   6.037   6.959 -0.5296  0.2077 -0.7062
20298SOL    HW162888   4.601   5.978   6.964  0.7095 -1.5204 -1.2033
20298SOL    HW262889   4.752   5.978   6.959  0.8550  1.8902  0.1427
20299SOL     OW62890   4.808   5.331   4.086  0.1672 -0.0325 -0.0529
20299SOL    HW162891   4.869   5.359   4.154  2.3649 -1.1604 -1.4315
20299SOL    HW262892   4.760   5.258   4.126 -1.1469  1.5559  1.4172
20300SOL     OW62893   7.656   1.222   4.059  0.1299  0.2025  0.8339
20300SOL    HW162894   7.682   1.301   4.107 -0.1713  0.4365  0.6190
20300SOL    HW262895   7.710   1.152   4.096  0.1564  0.4464  1.2677
20301SOL     OW62896   5.788   5.842   7.597 -0.5533  0.6374  0.1281
20301SOL    HW162897   5.697   5.863   7.616 -0.2469  0.6866  1.6883
20301SOL    HW262898   5.839   5.910   7.642  0.2733  1.7263 -2.2223
20302SOL     OW62899   5.604   3.341   8.746  0.5480  0.0423 -0.1873
20302SOL    HW162900   5.632   3.345   8.655  1.3529 -1.4700 -0.0387
20302SOL    HW262901   5.684   3.347   8.797  0.5570 -2.6358  0.2899
20303SOL     OW62902   0.160   6.829   7.428 -0.1538  0.2616  0.0608
20303SOL    HW162903   0.251   6.828   7.458 -0.2940  0.5637  0.5055
20303SOL    HW262904   0.108   6.831   7.509 -0.5415  0.6926 -0.1949
20304SOL     OW62905   5.335   3.035   5.280 -0.2269 -0.4021  0.7889
20304SOL    HW162906   5.307   3.081   5.201 -0.0285 -2.4983 -0.5843
20304SOL    HW262907   5.379   2.956   5.248  1.0281 -0.6952  2.9914
20305SOL     OW62908   1.580   4.603   1.199 -0.3638  0.5662 -0.1515
20305SOL    HW162909   1.622   4.592   1.285  0.8831 -2.7635 -1.0292
20305SOL    HW262910   1.644   4.568   1.137 -2.1116  0.8335 -2.2199
20306SOL     OW62911   2.571   0.571   5.016  0.1671 -0.2815  0.0121
20306SOL    HW162912   2.559   0.477   5.023 -0.4198 -0.2707 -0.6698
20306SOL    HW262913   2.621   0.596   5.094 -0.7354 -0.9705  0.8199
20307SOL     OW62914   3.580   3.426   7.490  0.1824  0.3968  0.4472
20307SOL    HW162915   3.668   3.389   7.502 -0.8398 -2.6977 -0.5270
20307SOL    HW262916   3.522   3.362   7.532 -1.7758  0.8096 -1.4581
20308SOL     OW62917   4.807   2.985   7.411 -0.1162 -0.2453  0.3654
20308SOL    HW162918   4.881   3.032   7.373 -0.6252  1.7835  1.7132
20308SOL    HW262919   4.741   2.985   7.342  1.1537 -2.3767 -0.9764
20309SOL     OW62920   3.575   1.453   8.779  0.2624  0.5255 -0.4296
20309SOL    HW162921   3.598   1.546   8.780 -1.5051  0.9973  0.1560
20309SOL    HW262922   3.526   1.442   8.697 -0.3226  0.3317 -0.0559
20310SOL     OW62923   0.311   0.635   8.692  0.0112 -0.0493 -0.8025
20310SOL    HW162924   0.279   0.549   8.718 -0.0898  0.4312  0.7243
20310SOL    HW262925   0.237   0.678   8.650 -0.3456 -0.2041 -0.3307
20311SOL     OW62926   1.097   8.226   1.808 -0.3362 -0.2335 -0.3838
20311SOL    HW162927   1.019   8.275   1.782  0.3179 -0.6086 -3.4243
20311SOL    HW262928   1.141   8.205   1.725  2.5783 -0.7354  1.1595
20312SOL     OW62929   3.948   5.566   3.701 -0.4689 -0.2437 -0.4397
20312SOL    HW162930   3.894   5.488   3.710 -1.3979  0.5077  0.7025
20312SOL    HW262931   3.915   5.627   3.767  0.8095  0.7963 -0.7056
20313SOL     OW62932   0.611   4.155   8.337 -0.1109  0.5240  0.0773
20313SOL    HW162933   0.582   4.111   8.417  0.4827  0.4889  0.2773
20313SOL    HW262934   0.691   4.201   8.362 -0.1700  0.8864 -0.3847
20314SOL     OW62935   0.343   5.516   2.579 -0.2147 -0.2415  0.3124
20314SOL    HW162936   0.295   5.434   2.577 -0.4306 -0.1032 -0.5157
20314SOL    HW262937   0.360   5.537   2.487 -1.8595  1.6229  0.3643
20315SOL     OW62938   3.714   7.932   5.763 -0.0665 -0.1235 -0.0886
20315SOL    HW162939   3.636   7.929   5.708  0.3954 -1.2971 -0.7163
20315SOL    HW262940   3.680   7.932   5.853 -0.8134  1.1945 -0.3472
20316SOL     OW62941   3.519   2.042   4.463  0.4812 -0.9139  0.8421
20316SOL    HW162942   3.614   2.042   4.457  0.7570 -1.4677  3.7224
20316SOL    HW262943   3.499   2.111   4.527 -1.1021 -0.5270 -0.0165
20317SOL     OW62944   5.112   2.136   5.412 -0.6026  0.2566  0.3701
20317SOL    HW162945   5.108   2.200   5.483  0.1870  0.7286 -0.0030
20317SOL    HW262946   5.023   2.136   5.376 -0.8775  0.3882  1.0216
20318SOL     OW62947   1.880   6.336   5.076  0.0305 -0.6091  0.5713
20318SOL    HW162948   1.834   6.253   5.088  0.7268 -0.8593  1.6871
20318SOL    HW262949   1.898   6.340   4.983  0.5067 -2.0074  0.5779
20319SOL     OW62950   8.708   4.992   5.298 -0.0793  0.0102 -1.1062
20319SOL    HW162951   8.670   4.918   5.251  0.5709 -0.2203 -1.2797
20319SOL    HW262952   8.774   5.027   5.239  1.4265 -0.8762 -0.0051
20320SOL     OW62953   5.479   2.180   8.179  1.0685  0.2868  0.0769
20320SOL    HW162954   5.428   2.246   8.226 -0.3744  0.0464 -1.0675
20320SOL    HW262955   5.473   2.206   8.087 -1.4376 -2.5358 -0.7221
20321SOL     OW62956   8.540   0.470   8.576  0.1734 -0.2465  0.1130
20321SOL    HW162957   8.479   0.448   8.505  0.1464  0.1342  0.0187
20321SOL    HW262958   8.624   0.434   8.547  0.3122  0.4983 -0.4234
20322SOL     OW62959   1.704   3.347   7.296  0.0244  0.0572 -0.9851
20322SOL    HW162960   1.657   3.306   7.368 -0.7633 -0.0229 -1.5233
20322SOL    HW262961   1.770   3.282   7.270  2.4348  1.2672  1.6057
20323SOL     OW62962   6.571   2.150   0.072  0.1086  0.4250  0.4170
20323SOL    HW162963   6.520   2.101   0.007  0.1905 -0.0514  0.7117
20323SOL    HW262964   6.532   2.126   0.156  0.4124  0.5496  0.5920
20324SOL     OW62965   0.602   7.140   2.276  0.0755  0.1191 -0.6329
20324SOL    HW162966   0.665   7.131   2.205  1.2180 -0.6622  0.4295
20324SOL    HW262967   0.535   7.199   2.242  1.6112  1.3420 -1.6694
20325SOL     OW62968   0.996   5.231   3.122 -0.5400  0.6043  0.8451
20325SOL    HW162969   0.942   5.230   3.201 -1.2999 -1.6038  0.3534
20325SOL    HW262970   1.057   5.158   3.133 -0.5353  0.3705 -0.5140
20326SOL     OW62971   7.575   0.555   7.737 -0.0850  0.4113  0.1233
20326SOL    HW162972   7.608   0.466   7.730 -1.3616 -0.3577  2.8569
20326SOL    HW262973   7.481   0.548   7.716 -0.1226  1.1942 -0.0180
20327SOL     OW62974   2.112   2.117   8.369 -0.1172  0.4573  0.3671
20327SOL    HW162975   2.030   2.093   8.413  0.1278  0.3357  0.7686
20327SOL    HW262976   2.113   2.065   8.289 -1.2621  1.7457 -0.5398
20328SOL     OW62977   6.314   4.274   5.363 -0.6296 -0.2498 -0.1340
20328SOL    HW162978   6.336   4.354   5.316 -0.1880 -0.9777 -1.1933
20328SOL    HW262979   6.282   4.304   5.448 -0.6586  1.0515 -0.5900
20329SOL     OW62980   1.256   2.855   0.591 -0.3639  0.0775 -0.4333
20329SOL    HW162981   1.203   2.778   0.570  0.6442 -0.7729  0.0436
20329SOL    HW262982   1.253   2.909   0.511 -1.5583 -0.1618 -0.5658
20330SOL     OW62983   4.627   6.346   6.545 -0.0636 -0.2185 -0.3038
20330SOL    HW162984   4.581   6.272   6.505  1.3389 -1.1102 -0.3102
20330SOL    HW262985   4.616   6.417   6.481 -1.5183 -0.3483 -0.2472
20331SOL     OW62986   0.809   0.642   3.025  0.1898  0.1181 -0.0559
20331SOL    HW162987   0.727   0.597   3.047 -1.1237  2.1629 -0.4614
20331SOL    HW262988   0.804   0.653   2.930  0.2632  1.4471  0.0823
20332SOL     OW62989   5.005   8.310   1.755 -0.3117 -0.0010  0.4729
20332SOL    HW162990   5.018   8.248   1.826  1.0829 -1.0254 -0.6224
20332SOL    HW262991   4.924   8.357   1.778 -2.0259 -2.9089  0.8886
20333SOL     OW62992   4.867   1.705   3.832 -0.7099 -0.6434 -0.6642
20333SOL    HW162993   4.945   1.723   3.884  0.3593 -0.8544 -2.1128
20333SOL    HW262994   4.832   1.791   3.811 -0.5966 -0.5307 -0.3990
20334SOL     OW62995   3.106   3.394   1.375  0.1199 -0.2052  0.1611
20334SOL    HW162996   3.092   3.302   1.351  0.7177 -0.4540  0.7220
20334SOL    HW262997   3.078   3.444   1.298 -0.1591 -0.8588 -0.1684
20335SOL     OW62998   1.421   6.594   2.497  0.1604  0.3565 -0.7122
20335SOL    HW162999   1.490   6.657   2.517  0.6974 -0.1878 -0.7848
20335SOL    HW263000   1.458   6.509   2.523 -0.6695  0.1030 -0.3124
20336SOL     OW63001   8.793   5.785   3.250  0.2696 -0.1649 -0.5610
20336SOL    HW163002   8.828   5.699   3.225 -0.2425 -0.6595  0.3614
20336SOL    HW263003   8.777   5.829   3.167  1.7291 -0.4656 -1.0274
20337SOL     OW63004   8.334   1.081   6.124  0.1244  0.2239  0.2643
20337SOL    HW163005   8.400   1.117   6.183  1.1001 -0.4142 -0.4092
20337SOL    HW263006   8.382   1.020   6.068 -1.1536 -0.7345  0.1651
20338SOL     OW63007   4.256   1.434   2.039  0.1868  0.7830 -0.4087
20338SOL    HW163008   4.251   1.519   1.996 -0.6296  0.5289 -0.8362
20338SOL    HW263009   4.271   1.372   1.967  0.0359  0.4922 -0.1923
20339SOL     OW63010   5.994   1.017   4.037  0.4815  0.2857 -0.0918
20339SOL    HW163011   6.088   1.016   4.058  0.8194  1.3170 -1.4096
20339SOL    HW263012   5.990   0.985   3.946 -0.1774  2.3489 -0.8572
20340SOL     OW63013   0.022   5.518   6.603  0.1634 -0.4629 -0.6090
20340SOL    HW163014   0.116   5.508   6.615  0.8120  0.7151 -3.6191
20340SOL    HW263015  -0.004   5.440   6.553 -0.3978 -0.6407 -0.0455
20341SOL     OW63016   2.612   2.202   6.693  0.1115 -0.2706 -0.3181
20341SOL    HW163017   2.586   2.225   6.604  2.3485  0.8534 -0.7782
20341SOL    HW263018   2.572   2.270   6.748 -1.3625 -1.0277 -0.4139
20342SOL     OW63019   5.999   6.583   6.434  0.8233  0.3273  0.2462
20342SOL    HW163020   5.928   6.636   6.471  0.7183 -0.2278  0.8481
20342SOL    HW263021   6.077   6.638   6.447  0.7144  0.3503  0.8608
20343SOL     OW63022   6.673   1.407   0.226  0.3673  0.0961 -0.0059
20343SOL    HW163023   6.634   1.414   0.138  1.8841  0.9448 -0.6401
20343SOL    HW263024   6.632   1.478   0.276 -0.3377 -0.2526 -0.0694
20344SOL     OW63025   1.645   8.810   7.227 -0.4241 -0.2494  0.1782
20344SOL    HW163026   1.595   8.748   7.174  0.1352 -2.3621  1.9628
20344SOL    HW263027   1.584   8.835   7.297 -0.6524  1.3157 -0.5375
20345SOL     OW63028   3.947   0.037   8.847  0.2049  0.4605 -0.5061
20345SOL    HW163029   4.034   0.022   8.810 -0.2844  0.6685 -1.8012
20345SOL    HW263030   3.906  -0.050   8.847  0.3787  0.3768  0.0221
20346SOL     OW63031   4.769   2.016   8.507  0.1753 -0.0205 -0.0520
20346SOL    HW163032   4.826   2.082   8.547 -2.2748  1.7807  0.6590
20346SOL    HW263033   4.742   2.054   8.423 -2.4945  0.6963  1.0439
20347SOL     OW63034   6.203   6.199   6.110  0.0464 -0.0462  0.4972
20347SOL    HW163035   6.250   6.135   6.057 -1.9068 -1.1681 -0.0081
20347SOL    HW263036   6.271   6.253   6.149  1.6449 -0.3736 -1.6464
20348SOL     OW63037   6.225   4.909   0.210  0.0789 -0.1467 -0.2971
20348SOL    HW163038   6.276   4.984   0.179 -2.2297  2.1586  0.9817
20348SOL    HW263039   6.287   4.858   0.263  1.5978  1.2359 -0.6595
20349SOL     OW63040   7.579   2.002   1.235 -0.0195  0.1755  0.0911
20349SOL    HW163041   7.626   2.038   1.310 -0.3434  1.1595 -0.1592
20349SOL    HW263042   7.486   2.014   1.257 -0.4350 -4.0494  1.7602
20350SOL     OW63043   2.624   8.253   5.533 -0.0908 -0.3872  0.7512
20350SOL    HW163044   2.675   8.237   5.453 -0.1892 -0.4939  0.7103
20350SOL    HW263045   2.676   8.214   5.603 -0.8875 -1.9355  0.5125
20351SOL     OW63046   5.909   3.842   5.433  0.3319  0.5916 -0.2472
20351SOL    HW163047   5.950   3.816   5.350 -0.4232  0.6158 -0.6409
20351SOL    HW263048   5.822   3.801   5.430  0.5822 -0.0530  0.8867
20352SOL     OW63049   6.405   2.624   5.981  0.1939 -0.1666 -0.1004
20352SOL    HW163050   6.453   2.645   5.901  1.2980 -0.3484  0.5004
20352SOL    HW263051   6.370   2.708   6.010 -0.1100 -0.0799 -0.7009
20353SOL     OW63052   0.078   6.884   8.189 -0.0354 -1.0665 -0.0153
20353SOL    HW163053   0.024   6.806   8.203  1.0128 -2.0406 -1.1589
20353SOL    HW263054   0.154   6.871   8.246  0.9715 -1.7565 -1.4608
20354SOL     OW63055   7.881   8.411   4.368  0.1950  0.3589 -0.2004
20354SOL    HW163056   7.808   8.472   4.383 -1.5749 -1.7448  0.2275
20354SOL    HW263057   7.850   8.354   4.297  1.4207 -0.6149  0.0130
20355SOL     OW63058   4.062   1.211   3.219  0.3011  0.1094  0.1895
20355SOL    HW163059   3.977   1.252   3.234 -0.3008 -0.9023 -0.3537
20355SOL    HW263060   4.052   1.163   3.137  1.5558  0.3685 -0.1345
20356SOL     OW63061   3.199   6.863   5.266  0.4301  0.4543  0.6926
20356SOL    HW163062   3.225   6.911   5.344  2.7368  1.0036 -0.3155
20356SOL    HW263063   3.141   6.922   5.219  0.9209  1.0979  0.8742
20357SOL     OW63064   3.031   3.105   8.662 -0.1850 -0.1518 -0.7961
20357SOL    HW163065   3.027   3.116   8.567 -1.0863  0.8219 -0.6691
20357SOL    HW263066   3.113   3.148   8.687  0.5281 -1.2238 -1.2077
20358SOL     OW63067   3.578   4.350   6.507 -0.2685  0.6208  0.5900
20358SOL    HW163068   3.657   4.376   6.460  0.7898  0.7356  2.3583
20358SOL    HW263069   3.506   4.383   6.452  0.8942  0.9648 -0.7884
20359SOL     OW63070   4.151   3.940   5.287 -0.2742  0.3470 -0.3075
20359SOL    HW163071   4.121   4.018   5.240  0.1912  1.5994  1.3909
20359SOL    HW263072   4.205   3.893   5.223 -0.3193  1.5622 -1.2765
20360SOL     OW63073   0.529   2.186   6.841 -0.3510 -0.0916  0.1034
20360SOL    HW163074   0.592   2.247   6.803 -1.0487  0.5312 -0.0765
20360SOL    HW263075   0.502   2.131   6.768 -0.5121  0.0701  0.0429
20361SOL     OW63076   4.574   1.928   0.002  0.0092  0.2872  0.2394
20361SOL    HW163077   4.587   1.860  -0.064 -2.8661 -1.6657  1.4565
20361SOL    HW263078   4.480   1.944   0.000 -0.1496  0.3935  3.5497
20362SOL     OW63079   7.087   2.986   4.090 -0.3254  0.0877 -0.3181
20362SOL    HW163080   7.025   3.040   4.041  1.4804  0.0759 -2.8335
20362SOL    HW263081   7.139   2.942   4.023  2.2765 -0.0673  1.6159
20363SOL     OW63082   4.682   5.939   5.594  0.1386  0.3308  0.2191
20363SOL    HW163083   4.711   5.999   5.663  0.0327 -0.2993  0.8262
20363SOL    HW263084   4.600   5.903   5.627  0.2352 -0.1958 -0.1138
20364SOL     OW63085   5.334   1.716   2.745 -0.0238  0.2703 -0.0514
20364SOL    HW163086   5.380   1.693   2.664  0.4998  0.0016  0.3120
20364SOL    HW263087   5.404   1.742   2.805 -0.3357 -0.2099  0.5320
20365SOL     OW63088   7.657   8.052   7.600 -0.3562  0.0970 -0.2773
20365SOL    HW163089   7.603   8.117   7.554  0.0711  1.2031  0.7256
20365SOL    HW263090   7.645   7.971   7.550 -1.1403  0.8705 -1.3931
20366SOL     OW63091   6.942   5.175   7.427  0.4533 -0.4050  0.7933
20366SOL    HW163092   7.010   5.197   7.363 -0.7867  0.7273 -0.2011
20366SOL    HW263093   6.864   5.157   7.374 -0.8397  1.3871  1.9709
20367SOL     OW63094   6.881   8.573   3.652  0.3851  0.1475 -0.2292
20367SOL    HW163095   6.904   8.648   3.706 -0.5805  1.0586 -1.0390
20367SOL    HW263096   6.870   8.501   3.714 -0.3761  1.0805  0.7446
20368SOL     OW63097   5.890   6.628   2.665  0.9659  0.2447 -0.1680
20368SOL    HW163098   5.984   6.614   2.675  0.6924 -0.7611  1.5159
20368SOL    HW263099   5.853   6.596   2.748 -0.9637 -0.4500 -1.2387
20369SOL     OW63100   2.203   5.249   5.350  0.1446 -0.2582 -0.1664
20369SOL    HW163101   2.194   5.224   5.442  0.7216 -1.0062 -0.2986
20369SOL    HW263102   2.159   5.333   5.343  1.8159  0.7996  1.2399
20370SOL     OW63103   1.817   0.848   6.854  0.2810 -0.0641 -0.3335
20370SOL    HW163104   1.776   0.879   6.934  1.3122  0.2614  0.0941
20370SOL    HW263105   1.813   0.752   6.861  0.6672 -0.0454  0.2886
20371SOL     OW63106   2.181   6.996   5.812 -0.1384  0.6300  0.1526
20371SOL    HW163107   2.151   6.931   5.749  1.1636  1.6546 -1.6302
20371SOL    HW263108   2.129   7.074   5.792  1.5652  1.5358 -1.0180
20372SOL     OW63109   6.859   4.574   6.710  0.1348 -0.1503  0.0679
20372SOL    HW163110   6.901   4.561   6.794 -0.7009  1.2833  0.7543
20372SOL    HW263111   6.930   4.572   6.646  1.0017  0.3650  0.9923
20373SOL     OW63112   5.645   2.002   1.651 -0.4543  0.5353 -0.2970
20373SOL    HW163113   5.639   1.953   1.569  0.3256  1.0940 -0.7052
20373SOL    HW263114   5.566   1.978   1.700  0.0242 -1.3077 -0.3606
20374SOL     OW63115   0.737   3.047   8.862  0.4134  0.2627 -0.0767
20374SOL    HW163116   0.822   3.074   8.898 -0.0313 -0.4217  1.6296
20374SOL    HW263117   0.758   3.007   8.778  1.6800  0.8722 -0.0795
20375SOL     OW63118   1.883   0.527   1.879  0.4624 -0.5307  0.2970
20375SOL    HW163119   1.915   0.474   1.806 -0.1150 -1.1980  0.5212
20375SOL    HW263120   1.834   0.466   1.934  0.1044  0.1578  0.7609
20376SOL     OW63121   4.771   8.133   8.390  0.2007  0.4091  0.1774
20376SOL    HW163122   4.819   8.198   8.340  1.3166  0.3336  1.1299
20376SOL    HW263123   4.699   8.107   8.332  0.6611  1.3187 -0.8303
20377SOL     OW63124   5.953   5.257   5.838  0.3771 -0.1872 -0.3125
20377SOL    HW163125   5.862   5.284   5.854  0.1542  0.2008 -2.0305
20377SOL    HW263126   5.963   5.177   5.888 -0.6948  0.1341  0.4647
20378SOL     OW63127   3.070   0.257   4.685  0.1436 -0.0041 -0.0561
20378SOL    HW163128   3.109   0.262   4.598 -2.2229  0.4857 -1.1644
20378SOL    HW263129   3.135   0.298   4.742  2.4528 -1.7423 -1.2822
20379SOL     OW63130   0.360   1.426   0.317  0.1562  0.6678 -0.0781
20379SOL    HW163131   0.433   1.488   0.326  1.4309 -0.6158 -1.1380
20379SOL    HW263132   0.284   1.475   0.348  1.6731  1.5634  2.6309
20380SOL     OW63133   1.324   5.133   1.541 -0.0783 -0.0103 -0.1046
20380SOL    HW163134   1.405   5.101   1.502  1.5712  3.9297 -0.3229
20380SOL    HW263135   1.335   5.119   1.635  1.9283  2.3339  0.0978
20381SOL     OW63136   4.209   2.946   8.292 -0.1002  0.1964 -0.0272
20381SOL    HW163137   4.114   2.937   8.296 -0.1276 -0.2525 -1.2294
20381SOL    HW263138   4.242   2.856   8.296  0.2900  0.3679  0.6763
20382SOL     OW63139   2.008   7.456   8.747  0.3430 -0.1387 -0.3029
20382SOL    HW163140   1.943   7.408   8.799 -0.4837 -0.3829 -1.5360
20382SOL    HW263141   1.976   7.546   8.747 -0.4835 -0.4091 -1.6080
20383SOL     OW63142   0.085   0.431   6.860  0.3630  0.1801  0.3065
20383SOL    HW163143   0.174   0.399   6.877  0.4689  0.3680  0.1076
20383SOL    HW263144   0.086   0.458   6.769  0.3413  0.9576  0.5299
20384SOL     OW63145   6.065   3.679   6.167 -0.2886  0.7528  0.3533
20384SOL    HW163146   6.129   3.728   6.116 -0.0121 -1.6981 -1.9023
20384SOL    HW263147   6.091   3.692   6.258  1.2423  2.6609 -0.3026
20385SOL     OW63148   0.304   5.722   8.518  0.0471 -0.6984 -0.0347
20385SOL    HW163149   0.216   5.746   8.489 -0.3871 -1.1775  0.8271
20385SOL    HW263150   0.304   5.626   8.519  1.2140 -0.7667 -1.8550
20386SOL     OW63151   5.827   6.865   5.654  0.2427 -0.0663 -0.2945
20386SOL    HW163152   5.795   6.948   5.689  1.1697  0.0094  0.4346
20386SOL    HW263153   5.841   6.810   5.732 -0.0684 -0.8034 -0.7451
20387SOL     OW63154   6.575   2.803   8.892 -0.3154  0.2425  0.2569
20387SOL    HW163155   6.644   2.840   8.947 -0.3054  0.3459  0.1771
20387SOL    HW263156   6.621   2.750   8.827 -0.4666 -2.8643  2.4733
20388SOL     OW63157   0.713   3.798   1.916 -0.1058  0.1417  0.4749
20388SOL    HW163158   0.805   3.822   1.928 -0.1835  1.0667 -0.6091
20388SOL    HW263159   0.676   3.870   1.864 -1.5551  0.0142  1.2790
20389SOL     OW63160   3.583   1.054   5.349 -0.5544 -0.3124 -0.2228
20389SOL    HW163161   3.635   1.131   5.370 -0.2568 -0.3538 -0.7861
20389SOL    HW263162   3.605   0.990   5.417 -1.4179  0.3710  0.7193
20390SOL     OW63163   4.764   8.754   4.804  0.3489 -0.1055 -0.5316
20390SOL    HW163164   4.823   8.782   4.874  0.1859 -0.2516 -0.3341
20390SOL    HW263165   4.694   8.707   4.849  1.3326 -2.0936 -0.9495
20391SOL     OW63166   2.267   4.236   2.670 -0.2559 -0.0218  0.4095
20391SOL    HW163167   2.194   4.176   2.687 -0.5761 -0.1735 -1.3944
20391SOL    HW263168   2.229   4.323   2.681 -0.8390 -0.0913 -0.9099
20392SOL     OW63169   4.648   1.236   5.846 -0.5040 -0.0845 -0.1582
20392SOL    HW163170   4.621   1.144   5.843  0.9685 -0.5208 -0.6319
20392SOL    HW263171   4.579   1.279   5.897 -1.4974 -1.3374 -0.3905
20393SOL     OW63172   3.258   4.242   4.310 -0.1881 -0.4711 -0.1233
20393SOL    HW163173   3.251   4.202   4.224 -0.2895  0.2242 -0.4386
20393SOL    HW263174   3.310   4.321   4.296  0.0527 -0.5112  0.5068
20394SOL     OW63175   4.399   4.948   3.622  0.7190  0.7622 -0.0685
20394SOL    HW163176   4.329   4.977   3.564 -0.5426  3.5169  2.5589
20394SOL    HW263177   4.467   4.917   3.563 -2.2191 -1.1947 -2.8311
20395SOL     OW63178   0.265   3.565   6.890  0.0722 -0.0434  0.0517
20395SOL    HW163179   0.198   3.612   6.940  1.7527  2.6907 -0.0594
20395SOL    HW263180   0.329   3.538   6.956  0.7151  0.7322 -0.2483
20396SOL     OW63181   5.731   5.171   4.048 -0.1009  0.1839  0.3107
20396SOL    HW163182   5.816   5.169   4.091 -0.3842  0.0262  0.8671
20396SOL    HW263183   5.751   5.193   3.957  0.5140  0.3471  0.4814
20397SOL     OW63184   6.154   7.363   0.906  0.3576  0.1753 -0.1851
20397SOL    HW163185   6.181   7.329   0.821  0.2703 -2.4272  0.7343
20397SOL    HW263186   6.178   7.456   0.904  1.1226 -0.0177 -2.7053
20398SOL     OW63187   7.309   4.187   5.266  0.5222 -0.0675 -0.3128
20398SOL    HW163188   7.346   4.205   5.180  0.0995 -0.5811 -0.6075
20398SOL    HW263189   7.219   4.158   5.249  1.2433 -2.7535  0.0840
20399SOL     OW63190   0.765   3.509   3.622  0.0621 -0.5097  0.2804
20399SOL    HW163191   0.837   3.489   3.682 -1.4616 -1.0193  2.0443
20399SOL    HW263192   0.713   3.428   3.619 -0.0848 -0.3887 -1.5166
20400SOL     OW63193   5.794   5.174   0.812 -0.1078 -0.7322  0.0961
20400SOL    HW163194   5.855   5.248   0.812 -0.4098 -0.4762 -0.4459
20400SOL    HW263195   5.708   5.215   0.817 -0.2255 -1.1207  1.9778
20401SOL     OW63196   7.035   8.347   3.235 -0.3113 -0.0076 -0.3191
20401SOL    HW163197   7.122   8.307   3.229  0.2342  1.3362 -3.3376
20401SOL    HW263198   7.050   8.430   3.279 -0.5225 -0.7437  1.2008
20402SOL     OW63199   5.688   2.472   2.883 -0.0295  0.2106 -0.0760
20402SOL    HW163200   5.643   2.393   2.915  0.1453  0.4481  0.7775
20402SOL    HW263201   5.781   2.452   2.893  0.0096  1.0680  1.5508
20403SOL     OW63202   6.308   7.352   4.426 -0.1225  0.1051  0.1734
20403SOL    HW163203   6.395   7.391   4.435 -0.7484  1.8228 -0.7679
20403SOL    HW263204   6.322   7.258   4.438  1.7592  0.4107  0.6025
20404SOL     OW63205   8.036   8.646   2.104  0.1256 -0.1731  0.2761
20404SOL    HW163206   8.099   8.709   2.071  1.6942 -0.7018  2.1073
20404SOL    HW263207   7.980   8.697   2.163  0.0315 -0.0834  0.1104
20405SOL     OW63208   6.920   8.239   7.366  0.0471 -0.3678  0.2721
20405SOL    HW163209   6.873   8.279   7.293 -0.4733 -0.7037  0.4159
20405SOL    HW263210   6.963   8.162   7.328 -1.2859 -1.2887  0.5663
20406SOL     OW63211   7.792   1.335   8.830 -0.1158 -0.5848 -0.2827
20406SOL    HW163212   7.703   1.368   8.836 -0.5000 -1.7549  1.0461
20406SOL    HW263213   7.841   1.384   8.896  0.0152 -0.5630 -0.3959
20407SOL     OW63214   1.123   6.194   0.616  1.1052  0.8633  0.0510
20407SOL    HW163215   1.105   6.262   0.681 -0.1438  0.3898  0.2287
20407SOL    HW263216   1.157   6.241   0.540 -0.0556  1.7422  0.0450
20408SOL     OW63217   3.258   8.797   2.689 -0.2371 -0.1044  0.1597
20408SOL    HW163218   3.175   8.808   2.641 -1.3802 -1.7652  1.6403
20408SOL    HW263219   3.262   8.873   2.747 -1.6918 -0.9164  1.3893
20409SOL     OW63220   3.890   6.575   4.499  0.0596  0.5900 -0.2942
20409SOL    HW163221   3.816   6.536   4.452  0.6455 -0.1020 -0.6687
20409SOL    HW263222   3.964   6.519   4.476  0.4313  0.4212  1.1994
20410SOL     OW63223   4.124   1.830   4.115  0.3584  0.3903  0.0572
20410SOL    HW163224   4.173   1.860   4.038  1.2752  0.3912  0.6309
20410SOL    HW263225   4.095   1.742   4.091 -2.6627  1.7116 -1.7779
20411SOL     OW63226   7.044   6.466   4.825 -0.3779  0.0624  0.5369
20411SOL    HW163227   7.052   6.561   4.815 -1.6475  0.1440  0.0617
20411SOL    HW263228   7.043   6.432   4.735 -1.9986 -0.1774  0.6087
20412SOL     OW63229   3.822   0.480   6.853  0.0158  0.0275 -0.0515
20412SOL    HW163230   3.762   0.426   6.801 -0.6317 -0.1507  0.8336
20412SOL    HW263231   3.872   0.417   6.904  0.4760  0.2052 -0.2851
20413SOL     OW63232   4.875   2.764   3.828 -0.3464 -0.0547  0.0710
20413SOL    HW163233   4.883   2.670   3.845 -1.3286 -0.1020  0.3783
20413SOL    HW263234   4.894   2.805   3.913  1.0210  0.0936 -0.2875
20414SOL     OW63235   6.947   5.681   1.384  0.1995  0.1878  0.5952
20414SOL    HW163236   6.952   5.619   1.311  0.4858 -0.2926  1.0155
20414SOL    HW263237   6.965   5.767   1.345  0.4268 -0.0783  0.1187
20415SOL     OW63238   7.865   6.174   7.146 -0.0214  0.1332  0.7819
20415SOL    HW163239   7.922   6.155   7.071 -0.5674  1.3441  0.0272
20415SOL    HW263240   7.777   6.155   7.115 -0.1980  0.0679  1.3179
20416SOL     OW63241   3.729   8.578   3.602 -0.1080 -0.4246 -0.3755
20416SOL    HW163242   3.796   8.523   3.562  1.5823  0.9305  0.4509
20416SOL    HW263243   3.650   8.563   3.549  0.7821 -2.2048 -1.2624
20417SOL     OW63244   1.223   4.410   8.008 -0.4181 -0.1324  0.6726
20417SOL    HW163245   1.269   4.473   7.952  2.2205 -1.8581  0.7366
20417SOL    HW263246   1.189   4.344   7.947  0.1070 -0.5934  0.8700
20418SOL     OW63247   0.123   0.833   3.976 -0.2212  0.6488  0.6818
20418SOL    HW163248   0.056   0.773   3.942  0.1952  0.5167  0.0730
20418SOL    HW263249   0.074   0.913   3.996 -0.6893  0.2924  0.9927
20419SOL     OW63250   2.654   7.084   7.671 -0.1648  0.3682  0.4216
20419SOL    HW163251   2.634   7.139   7.747  0.5355  1.5294 -0.1980
20419SOL    HW263252   2.750   7.088   7.663 -0.1929 -0.0815 -0.2801
20420SOL     OW63253   6.824   6.811   1.535  0.1185 -0.2781  0.7501
20420SOL    HW163254   6.779   6.890   1.504  0.4725 -0.2236  0.3594
20420SOL    HW263255   6.811   6.812   1.630  0.4043  0.4402  0.7928
20421SOL     OW63256   2.050   1.733   2.088  0.4222  0.2566  0.2046
20421SOL    HW163257   2.104   1.678   2.145  0.8238 -1.4719 -1.6927
20421SOL    HW263258   1.963   1.733   2.128  1.1927  0.9728  1.9563
20422SOL     OW63259   4.992   7.374   0.919 -0.3731 -0.0476  0.0538
20422SOL    HW163260   4.943   7.456   0.912 -0.9630 -0.3485  0.5371
20422SOL    HW263261   5.013   7.349   0.829  0.2765  0.9023 -0.0739
20423SOL     OW63262   3.200   7.660   2.237 -0.0802  0.2289  0.2341
20423SOL    HW163263   3.272   7.662   2.300  1.0697  0.7464 -1.0647
20423SOL    HW263264   3.242   7.645   2.152 -1.6090 -0.5973 -0.4199
20424SOL     OW63265   7.501   0.039   8.705  0.4634  0.5823  0.1277
20424SOL    HW163266   7.466   0.059   8.618 -1.9504 -0.9835  0.6404
20424SOL    HW263267   7.569  -0.026   8.689  0.2692  0.5463 -0.6064
20425SOL     OW63268   0.519   2.067   2.901  0.1098 -0.6134  0.1798
20425SOL    HW163269   0.478   2.154   2.900 -1.7950 -1.2860  3.5046
20425SOL    HW263270   0.459   2.011   2.852 -1.3033 -0.9071  2.1263
20426SOL     OW63271   3.038   6.478   7.993 -0.2116  0.3645  0.2235
20426SOL    HW163272   2.999   6.564   7.981 -1.5311 -0.4750 -2.0035
20426SOL    HW263273   2.964   6.421   8.014 -0.2460 -1.1154 -3.3368
20427SOL     OW63274   5.730   6.412   0.748  0.0005  0.3066  0.2909
20427SOL    HW163275   5.805   6.417   0.807 -0.5048  0.1378  0.9711
20427SOL    HW263276   5.703   6.502   0.735 -0.3053  0.3101  0.8899
20428SOL     OW63277   7.938   1.208   6.139  0.3054  0.2290  0.0664
20428SOL    HW163278   7.958   1.300   6.121  0.9554  0.5955  2.4086
20428SOL    HW263279   8.004   1.159   6.088 -0.2334  0.9968 -1.4362
20429SOL     OW63280   8.636   4.666   5.940 -0.4785  0.3887 -0.1560
20429SOL    HW163281   8.567   4.703   5.997 -2.4549 -1.8247 -0.9425
20429SOL    HW263282   8.652   4.579   5.976 -0.0417 -0.1462 -1.5885
20430SOL     OW63283   0.599   8.120   4.867  0.1362  0.6904 -0.5395
20430SOL    HW163284   0.556   8.038   4.841 -1.4240  1.5753 -0.8554
20430SOL    HW263285   0.682   8.092   4.905  0.3464 -0.9436 -2.0851
20431SOL     OW63286   1.965   0.625   3.066 -0.4737  0.2322  0.5080
20431SOL    HW163287   1.901   0.576   3.014  1.6073 -0.3512 -1.6888
20431SOL    HW263288   1.951   0.717   3.041  1.4107 -0.1420 -2.3834
20432SOL     OW63289   3.407   4.134   7.839  0.2119 -0.8123 -0.1874
20432SOL    HW163290   3.427   4.203   7.776 -0.4689 -0.7414 -0.3335
20432SOL    HW263291   3.371   4.062   7.786  0.2642 -1.0138  0.0458
20433SOL     OW63292   4.780   3.562   3.926 -0.1630  0.5129 -0.9836
20433SOL    HW163293   4.768   3.623   3.854 -0.0460 -0.1120 -1.5475
20433SOL    HW263294   4.815   3.483   3.885  2.1984  0.9185  0.0315
20434SOL     OW63295   6.491   7.253   8.403 -0.0993 -0.2045  0.5320
20434SOL    HW163296   6.455   7.164   8.406  0.9230 -0.6629 -0.1000
20434SOL    HW263297   6.441   7.301   8.469 -0.7587 -1.2108  0.7972
20435SOL     OW63298   8.024   1.760   0.795 -0.4161  0.4257  0.3265
20435SOL    HW163299   8.116   1.785   0.807 -0.4424 -0.1969  2.2565
20435SOL    HW263300   7.999   1.799   0.711  1.8602 -0.1561 -0.7011
20436SOL     OW63301   2.419   7.211   8.657 -0.3381 -0.2508  0.1577
20436SOL    HW163302   2.416   7.259   8.575  1.3261 -0.3395  0.0076
20436SOL    HW263303   2.446   7.276   8.722  0.2019 -0.5723  0.2681
20437SOL     OW63304   0.224   1.653   4.135 -0.1193 -0.2849 -0.3718
20437SOL    HW163305   0.301   1.709   4.143  1.1084 -2.0374  0.9404
20437SOL    HW263306   0.157   1.709   4.097  1.1192  1.9711  0.5961
20438SOL     OW63307   5.230   7.223   3.862 -0.2453 -0.1906  0.6298
20438SOL    HW163308   5.296   7.172   3.815  1.4096  0.4801  2.1084
20438SOL    HW263309   5.274   7.304   3.884 -2.4676  1.4825 -0.6631
20439SOL     OW63310   3.337   3.780   3.128 -0.1996  0.5131 -0.2790
20439SOL    HW163311   3.284   3.860   3.120 -0.3201  0.3426 -1.3862
20439SOL    HW263312   3.304   3.737   3.207 -0.5878  1.2233 -0.0422
20440SOL     OW63313   1.548   6.057   7.746 -0.0893 -0.1795  0.1245
20440SOL    HW163314   1.469   6.107   7.767  0.4921  1.0216 -0.4792
20440SOL    HW263315   1.550   6.055   7.650 -0.4174 -1.8977  0.1273
20441SOL     OW63316   7.468   2.180   2.889 -0.1104 -0.8713  0.0412
20441SOL    HW163317   7.445   2.252   2.831 -0.2581 -0.7230  0.2834
20441SOL    HW263318   7.497   2.110   2.830 -1.2425 -1.0915 -0.2762
20442SOL     OW63319   8.082   1.094   8.169 -0.3534 -0.1148 -0.0522
20442SOL    HW163320   8.140   1.018   8.172 -1.2805 -0.8561 -0.4232
20442SOL    HW263321   8.137   1.165   8.135 -0.2246 -1.3326 -2.6010
20443SOL     OW63322   7.675   8.703   6.913  0.2601  0.1855  0.1091
20443SOL    HW163323   7.721   8.638   6.967 -2.3410 -2.0369 -0.1074
20443SOL    HW263324   7.658   8.775   6.973  1.2578 -0.3133  1.0295
20444SOL     OW63325   7.877   7.206   8.705 -0.7992  0.0516  0.4699
20444SOL    HW163326   7.968   7.204   8.735 -1.0053 -0.6863  1.0818
20444SOL    HW263327   7.833   7.263   8.769 -1.0363 -0.7062  0.9930
20445SOL     OW63328   0.057   1.907   7.740 -0.5085  0.0267  0.1670
20445SOL    HW163329   0.076   1.983   7.795 -0.3786  0.0423  0.1011
20445SOL    HW263330   0.008   1.943   7.666  0.8495  0.2895 -0.6408
20446SOL     OW63331   6.337   8.516   8.851 -0.2171 -0.0164  0.1615
20446SOL    HW163332   6.306   8.607   8.853  1.1064  0.4488 -0.0089
20446SOL    HW263333   6.335   8.492   8.758  1.1538  0.4548 -0.0027
20447SOL     OW63334   8.854   7.983   5.192  0.3179  0.3781  0.0145
20447SOL    HW163335   8.876   7.914   5.130  0.5224  1.2173 -0.8661
20447SOL    HW263336   8.939   8.014   5.223  0.2127 -0.5414  1.3187
20448SOL     OW63337   3.830   6.226   4.810 -0.2880 -0.0167 -0.1774
20448SOL    HW163338   3.776   6.296   4.847  2.0812  2.2581 -0.6654
20448SOL    HW263339   3.901   6.214   4.874  0.0653 -1.0477 -0.7354
20449SOL     OW63340   7.488   7.473   6.482 -0.5329 -0.1006  0.0477
20449SOL    HW163341   7.560   7.410   6.489  1.0856  1.4616 -1.4424
20449SOL    HW263342   7.445   7.451   6.400 -0.4788  0.2245 -0.0678
20450SOL     OW63343   3.480   4.774   6.651  0.7608 -0.1404 -0.5848
20450SOL    HW163344   3.489   4.862   6.687 -0.6699  0.3393 -1.3443
20450SOL    HW263345   3.545   4.722   6.699  2.3566  1.5129 -0.8262
20451SOL     OW63346   4.576   6.592   1.718 -0.2235  0.3831  0.3400
20451SOL    HW163347   4.551   6.502   1.737 -0.8733  0.7774  1.4670
20451SOL    HW263348   4.551   6.641   1.796 -2.8727  2.1164 -1.4317
20452SOL     OW63349   7.812   8.284   6.548 -0.6189 -0.3336 -0.4289
20452SOL    HW163350   7.809   8.380   6.558 -1.8772 -0.1868 -1.8431
20452SOL    HW263351   7.722   8.259   6.528 -0.2449 -1.7876 -0.4067
20453SOL     OW63352   3.899   7.408   8.857  0.5558  0.6258  0.0786
20453SOL    HW163353   3.928   7.378   8.770  0.1635  1.3641 -0.3189
20453SOL    HW263354   3.926   7.339   8.916  3.7634  1.5151 -0.1431
20454SOL     OW63355   2.073   5.297   2.955 -0.4656 -0.1258  0.0373
20454SOL    HW163356   2.009   5.235   2.921 -2.0731  0.7517  1.3323
20454SOL    HW263357   2.100   5.349   2.879 -1.9637  0.0539 -0.3939
20455SOL     OW63358   8.595   1.189   1.178 -0.3120  0.3129 -0.7021
20455SOL    HW163359   8.560   1.268   1.220 -1.3292  0.6262 -2.0851
20455SOL    HW263360   8.560   1.117   1.230 -2.1682  0.6633 -1.3732
20456SOL     OW63361   5.372   1.201   0.800 -0.8636 -0.3020  0.3592
20456SOL    HW163362   5.457   1.158   0.785 -0.8690 -0.4530  0.7369
20456SOL    HW263363   5.390   1.264   0.870 -0.7331  0.7061 -0.5719
20457SOL     OW63364   4.614   6.616   2.342 -0.3352 -0.0078  0.0540
20457SOL    HW163365   4.695   6.596   2.389  0.2123 -0.1612 -0.9229
20457SOL    HW263366   4.623   6.571   2.258 -1.0411  0.7183 -0.4307
20458SOL     OW63367   5.199   8.221   8.520  0.0213 -0.1609  0.0892
20458SOL    HW163368   5.204   8.305   8.564 -1.6843  0.6248 -1.1135
20458SOL    HW263369   5.144   8.167   8.577  0.0555 -0.0372  0.2397
20459SOL     OW63370   8.670   2.350   4.630 -0.4437 -0.4535  0.3018
20459SOL    HW163371   8.651   2.385   4.543  0.8417 -0.0129  0.1720
20459SOL    HW263372   8.649   2.257   4.623 -0.9262 -0.3054 -0.3043
20460SOL     OW63373   7.771   0.443   0.446  0.0757  0.5662 -0.3209
20460SOL    HW163374   7.791   0.389   0.522  0.7130  2.5460  1.0159
20460SOL    HW263375   7.757   0.381   0.374 -0.6692 -1.3788  1.4157
20461SOL     OW63376   1.700   4.590   1.760 -0.5091  0.0892  0.4665
20461SOL    HW163377   1.782   4.553   1.794  0.1280  2.2005  1.3826
20461SOL    HW263378   1.719   4.611   1.669 -0.3705 -0.3285  0.3950
20462SOL     OW63379   8.526   5.018   5.976  0.0572 -0.7837 -0.4343
20462SOL    HW163380   8.490   5.068   5.903  0.4186  0.8942  0.4916
20462SOL    HW263381   8.499   5.067   6.054  0.7479 -1.8412  0.4963
20463SOL     OW63382   0.159   0.082   2.978  0.1976  0.3320  0.4863
20463SOL    HW163383   0.130   0.171   2.958  0.9966  0.3666 -0.6358
20463SOL    HW263384   0.091   0.026   2.942  0.8910  0.4446 -1.0994
20464SOL     OW63385   2.880   2.467   2.407 -0.0590 -0.2292  0.6214
20464SOL    HW163386   2.816   2.403   2.440  1.0868 -1.7343  0.0702
20464SOL    HW263387   2.936   2.485   2.482 -1.3733  1.4871  1.2490
20465SOL     OW63388   8.878   0.287   5.029  0.2319 -0.4512 -0.4027
20465SOL    HW163389   8.852   0.379   5.033 -0.0373 -0.5419  0.2177
20465SOL    HW263390   8.972   0.288   5.017  0.5688 -0.0460  1.8121
20466SOL     OW63391   1.110   7.842   1.024 -0.0653  0.6213  0.0757
20466SOL    HW163392   1.186   7.787   1.005  0.3485  0.1439  2.7226
20466SOL    HW263393   1.054   7.831   0.948  2.6688  1.3975 -2.2323
20467SOL     OW63394   0.122   2.119   8.177  1.0914 -0.3137  0.3169
20467SOL    HW163395   0.029   2.116   8.156  1.3158  0.0805 -0.8191
20467SOL    HW263396   0.149   2.028   8.183  0.4849 -0.4397  1.4376
20468SOL     OW63397   6.812   0.540   8.177  0.0884 -0.0702  0.4244
20468SOL    HW163398   6.808   0.635   8.166  0.1602 -0.0473  0.5911
20468SOL    HW263399   6.747   0.506   8.115  0.5529  0.0451 -0.1346
20469SOL     OW63400   4.857   6.372   7.249 -0.4107 -0.7620 -0.3519
20469SOL    HW163401   4.943   6.381   7.290 -0.2252 -0.8165 -0.7297
20469SOL    HW263402   4.834   6.460   7.220  0.1742 -0.9841 -1.5616
20470SOL     OW63403   7.106   5.434   4.619  0.0056 -0.8307  0.4467
20470SOL    HW163404   7.159   5.454   4.696  0.2632  0.6245 -0.0784
20470SOL    HW263405   7.064   5.351   4.640  0.5659 -0.7787  1.8909
20471SOL     OW63406   5.004   6.243   2.150  0.4763  0.1714  0.0219
20471SOL    HW163407   4.931   6.182   2.134 -0.3785  0.6504  1.8308
20471SOL    HW263408   5.081   6.197   2.116 -0.3675 -1.2412 -0.0746
20472SOL     OW63409   8.420   7.593   1.440  0.1636 -0.3762  0.2398
20472SOL    HW163410   8.351   7.658   1.427 -0.1806 -0.6477  0.6664
20472SOL    HW263411   8.412   7.533   1.366  0.1443 -0.2290  0.1235
20473SOL     OW63412   2.836   5.696   6.045 -0.3323 -0.0092 -0.1153
20473SOL    HW163413   2.764   5.746   6.082  0.2626  1.4545 -0.8749
20473SOL    HW263414   2.878   5.655   6.121 -0.0085  1.7721  0.7215
20474SOL     OW63415   0.681   4.471   7.784 -0.4671 -0.1615  0.5423
20474SOL    HW163416   0.590   4.485   7.811 -0.5796 -1.1425  0.7059
20474SOL    HW263417   0.718   4.559   7.779 -1.5452  0.2937  0.0518
20475SOL     OW63418   2.725   5.888   0.591  0.5665 -0.4327  0.0406
20475SOL    HW163419   2.769   5.972   0.578  0.6041 -0.6101 -1.1199
20475SOL    HW263420   2.781   5.825   0.544 -1.7367 -0.4232 -3.0564
20476SOL     OW63421   6.608   7.256   4.282 -0.7722  0.0367 -0.2668
20476SOL    HW163422   6.584   7.302   4.202 -0.1238  0.1843 -0.3800
20476SOL    HW263423   6.585   7.316   4.353  2.0665  1.5197 -0.4747
20477SOL     OW63424   5.613   5.246   5.227 -0.1411 -0.2547 -0.1850
20477SOL    HW163425   5.702   5.213   5.238  0.1018  0.4239 -0.0622
20477SOL    HW263426   5.585   5.269   5.315 -1.0120 -1.8626  0.0028
20478SOL     OW63427   0.074   1.939   4.361 -0.0468 -0.1908 -0.2089
20478SOL    HW163428   0.039   2.014   4.313 -0.7398 -1.2426 -1.4088
20478SOL    HW263429  -0.003   1.898   4.402  0.3014 -0.3593  0.2946
20479SOL     OW63430   1.338   0.205   3.899  0.1125  0.3350  0.9902
20479SOL    HW163431   1.325   0.258   3.821  2.4268 -1.7099 -0.9535
20479SOL    HW263432   1.408   0.250   3.948  0.6075  0.2002  0.4188
20480SOL     OW63433   2.652   3.568   0.795  0.3201 -0.3047 -0.3937
20480SOL    HW163434   2.614   3.656   0.793 -1.4183 -1.0170 -0.8371
20480SOL    HW263435   2.597   3.520   0.857  1.7072 -0.9132  0.4130
20481SOL     OW63436   5.485   8.534   2.442  0.0460 -0.1458 -0.2629
20481SOL    HW163437   5.395   8.569   2.446  0.2286  0.6454 -1.9570
20481SOL    HW263438   5.538   8.598   2.489 -0.2707 -0.6234  0.7577
20482SOL     OW63439   3.085   5.278   0.194  0.0282 -0.7177  0.4869
20482SOL    HW163440   3.157   5.216   0.190  0.0381 -0.9732  2.8079
20482SOL    HW263441   3.125   5.359   0.226 -0.1909  0.1612 -1.3594
20483SOL     OW63442   6.960   8.269   2.732  0.0343 -0.4757 -0.1495
20483SOL    HW163443   6.965   8.321   2.651 -1.6110 -0.7535 -0.4746
20483SOL    HW263444   6.991   8.328   2.800 -0.0009  0.2898 -0.7774
20484SOL     OW63445   6.891   7.629   4.024 -0.2484  0.5487 -0.4791
20484SOL    HW163446   6.944   7.676   4.088  0.3691 -0.5076 -0.1755
20484SOL    HW263447   6.949   7.558   3.993 -2.0563 -1.8722  1.2802
20485SOL     OW63448   0.036   0.505   0.769  0.1302  0.0343 -0.1609
20485SOL    HW163449   0.070   0.556   0.695 -0.5661  0.2705 -0.3217
20485SOL    HW263450   0.052   0.414   0.743  0.0097  0.1189 -0.5476
20486SOL     OW63451   6.450   1.430   0.446 -0.2721 -0.4056 -0.1502
20486SOL    HW163452   6.444   1.348   0.398 -1.3787 -0.1000 -0.5686
20486SOL    HW263453   6.454   1.404   0.538  0.1113 -0.9405 -0.3129
20487SOL     OW63454   2.158   4.265   8.804  0.1920 -0.4921  0.0093
20487SOL    HW163455   2.192   4.181   8.773 -0.4544 -0.7537 -0.0147
20487SOL    HW263456   2.097   4.240   8.874  0.5399  0.0021  0.4911
20488SOL     OW63457   3.239   5.488   1.731 -0.2797 -0.2859 -1.1360
20488SOL    HW163458   3.257   5.581   1.719 -3.2950  0.7976  1.3674
20488SOL    HW263459   3.232   5.454   1.642  0.0988  2.0299 -2.1362
20489SOL     OW63460   7.330   1.654   0.721 -0.3970  0.1323 -0.1794
20489SOL    HW163461   7.418   1.639   0.755 -0.8122  0.5211  1.1071
20489SOL    HW263462   7.343   1.706   0.642  0.4608  1.5023  0.8215
20490SOL     OW63463   2.286   1.520   2.024  0.0998 -0.3797  0.5437
20490SOL    HW163464   2.268   1.505   2.116 -0.7837  0.4514  0.5257
20490SOL    HW263465   2.242   1.603   2.004  0.7722 -0.2504 -0.4771
20491SOL     OW63466   5.360   2.268   7.525  0.6670  0.0961 -0.1110
20491SOL    HW163467   5.394   2.235   7.609  1.0441  0.3114 -0.1772
20491SOL    HW263468   5.359   2.191   7.468  1.1837  0.1173 -0.1507
20492SOL     OW63469   4.296   4.676   7.567 -0.5174  0.2601  0.5927
20492SOL    HW163470   4.275   4.756   7.616  0.4910 -0.0559  1.6043
20492SOL    HW263471   4.318   4.706   7.479 -1.3685  0.9626  0.6112
20493SOL     OW63472   0.035   3.651   7.047  0.0735 -0.9736 -0.5526
20493SOL    HW163473   0.008   3.693   6.965 -0.3803  2.0796  0.9852
20493SOL    HW263474  -0.047   3.634   7.093  0.3325  1.4190  0.9932
20494SOL     OW63475   2.025   2.800   3.290  0.6017  0.3921  0.5080
20494SOL    HW163476   1.964   2.750   3.235  0.3951  0.2164  0.8895
20494SOL    HW263477   1.970   2.869   3.328  0.9205  1.0172 -0.1464
20495SOL     OW63478   5.089   2.337   7.291  0.2790  0.1230 -0.4712
20495SOL    HW163479   5.139   2.364   7.214  0.0767  0.4578 -0.4864
20495SOL    HW263480   5.047   2.417   7.322  0.8641  0.1156  0.3675
20496SOL     OW63481   7.651   2.105   7.113 -0.2804  0.1051  0.3987
20496SOL    HW163482   7.611   2.019   7.129 -1.5647  0.5613 -0.1912
20496SOL    HW263483   7.602   2.141   7.039 -1.1944  2.1886  1.8901
20497SOL     OW63484   4.574   5.430   4.744 -0.6307 -0.8185  0.1067
20497SOL    HW163485   4.564   5.457   4.835 -1.3865 -0.9280  0.0633
20497SOL    HW263486   4.577   5.335   4.747 -2.3773 -0.9229 -0.1080
20498SOL     OW63487   6.589   2.914   5.700 -0.1256 -0.1835 -0.1506
20498SOL    HW163488   6.557   2.824   5.705  0.9881 -0.5255  2.1505
20498SOL    HW263489   6.510   2.967   5.690 -0.8489 -1.3369 -0.8496
20499SOL     OW63490   7.499   1.441   0.160 -0.6551 -0.2955  0.6928
20499SOL    HW163491   7.482   1.423   0.068 -0.2465  0.2250  0.5146
20499SOL    HW263492   7.488   1.536   0.169 -0.8640 -0.3616  1.2180
20500SOL     OW63493   6.841   0.935   5.931 -0.2552  0.0327 -0.0278
20500SOL    HW163494   6.759   0.931   5.883 -0.5103 -3.2282  0.4444
20500SOL    HW263495   6.833   0.867   5.998  2.4907  0.2144  0.6131
20501SOL     OW63496   0.108   6.538   3.940  0.0841  0.2771 -0.2101
20501SOL    HW163497   0.023   6.582   3.933 -0.2164 -0.1650  0.5166
20501SOL    HW263498   0.166   6.603   3.978 -0.1179  0.3525 -0.0297
20502SOL     OW63499   4.032   0.522   5.558 -0.3110  0.2825  0.2997
20502SOL    HW163500   4.009   0.436   5.594 -0.2410  1.4653  3.4423
20502SOL    HW263501   3.970   0.536   5.486 -2.1053 -1.2603  1.4705
20503SOL     OW63502   1.055   3.252   5.678 -0.1611  0.1535 -0.4722
20503SOL    HW163503   0.982   3.308   5.703  0.6132  0.6251  0.8445
20503SOL    HW263504   1.093   3.293   5.601  0.7839  1.8396  0.8369
20504SOL     OW63505   8.562   2.015   5.785 -0.2446  0.3842 -0.4717
20504SOL    HW163506   8.633   2.077   5.799 -0.0842  0.0382  0.2534
20504SOL    HW263507   8.501   2.061   5.727 -0.3839  1.4081  0.4751
20505SOL     OW63508   6.247   7.000   5.789 -0.3381 -0.0882  0.0181
20505SOL    HW163509   6.175   6.971   5.844 -0.5101  2.1532  1.0965
20505SOL    HW263510   6.234   7.095   5.781  2.4736  0.4132  0.3204
20506SOL     OW63511   0.976   4.494   6.296  1.0161  0.0539  0.3860
20506SOL    HW163512   1.006   4.424   6.237  1.4073  0.2987  0.2906
20506SOL    HW263513   1.055   4.544   6.315  0.7069  0.5795  0.3116
20507SOL     OW63514   0.836   5.375   6.757  0.3842  0.0524 -0.6650
20507SOL    HW163515   0.857   5.301   6.699  2.5872  0.3776 -0.3687
20507SOL    HW263516   0.866   5.452   6.709  2.1329  0.3397  0.7854
20508SOL     OW63517   6.867   1.221   5.622  0.4199 -0.0886 -0.2357
20508SOL    HW163518   6.832   1.297   5.670 -1.0364  0.0846 -1.4850
20508SOL    HW263519   6.958   1.214   5.651 -0.3687 -0.0545  2.6039
20509SOL     OW63520   5.035   5.324   3.138 -0.2638  0.2371 -0.2976
20509SOL    HW163521   5.009   5.264   3.207 -1.3076  0.9813 -0.0204
20509SOL    HW263522   5.055   5.406   3.183  0.8717  0.1978 -0.6962
20510SOL     OW63523   7.008   8.442   4.659 -0.1218  0.0659  0.0883
20510SOL    HW163524   6.947   8.436   4.733  0.2273  0.9119  0.4556
20510SOL    HW263525   6.953   8.461   4.583 -0.6026 -1.7968 -0.0871
20511SOL     OW63526   7.072   4.247   7.659  0.0796  0.6121  0.0965
20511SOL    HW163527   7.112   4.262   7.574  1.0624  0.8067  0.5864
20511SOL    HW263528   7.027   4.329   7.680  0.0309  0.6416 -0.1274
20512SOL     OW63529   4.429   6.051   3.595 -0.3404 -0.4792  0.2244
20512SOL    HW163530   4.500   6.042   3.659  1.4081 -0.6818 -1.6262
20512SOL    HW263531   4.362   6.102   3.640  1.5670  0.9258  1.6404
20513SOL     OW63532   3.201   6.832   6.514 -0.4874  0.0447 -0.3224
20513SOL    HW163533   3.141   6.902   6.487 -0.3193 -0.8025 -3.2976
20513SOL    HW263534   3.288   6.872   6.510 -0.3662 -0.3381 -2.2951
20514SOL     OW63535   6.718   7.830   3.004  0.4147 -0.7766  0.0860
20514SOL    HW163536   6.712   7.925   2.997  2.0229 -0.6943 -0.5942
20514SOL    HW263537   6.689   7.811   3.094  1.4238  0.5084  0.7163
20515SOL     OW63538   8.479   4.482   3.579  0.1101 -0.0926  0.0065
20515SOL    HW163539   8.549   4.445   3.525 -1.3381 -2.3661 -0.4760
20515SOL    HW263540   8.520   4.502   3.663  1.4503 -0.7158 -0.4738
20516SOL     OW63541   6.046   3.157   0.768 -0.1519  0.4363  0.3480
20516SOL    HW163542   6.097   3.135   0.690 -2.8316  1.0671 -1.7647
20516SOL    HW263543   6.068   3.249   0.785  1.5412 -0.1069  1.3236
20517SOL     OW63544   2.405   5.829   4.192 -0.0046  0.6109  0.0825
20517SOL    HW163545   2.356   5.764   4.141  0.6444 -1.2103  1.6397
20517SOL    HW263546   2.496   5.798   4.189 -0.0680 -0.1596  3.0576
20518SOL     OW63547   3.376   3.920   4.223  0.6597  0.0956  0.3250
20518SOL    HW163548   3.422   3.847   4.265  0.2930 -0.4277 -0.1811
20518SOL    HW263549   3.425   3.998   4.251  2.1978 -0.4815 -0.6290
20519SOL     OW63550   6.851   0.689   4.603  0.2177  0.1890  0.3171
20519SOL    HW163551   6.917   0.727   4.545  0.7759  0.4111  1.0790
20519SOL    HW263552   6.880   0.714   4.691 -0.9572  0.4029  0.6541
20520SOL     OW63553   3.063   8.097   2.071 -0.1812  0.6080 -0.0124
20520SOL    HW163554   3.143   8.047   2.057  0.8450  1.3586  2.5690
20520SOL    HW263555   3.076   8.178   2.022  0.5088  0.5969  0.1490
20521SOL     OW63556   4.798   7.949   7.176 -0.1098 -0.3402  0.2977
20521SOL    HW163557   4.729   7.884   7.168  0.3120 -1.0436  1.9379
20521SOL    HW263558   4.854   7.935   7.099 -0.0381 -1.9318  0.5981
20522SOL     OW63559   3.217   5.078   3.423 -1.0041  0.2090  0.6718
20522SOL    HW163560   3.241   5.059   3.332 -0.8264  1.0829  0.5325
20522SOL    HW263561   3.300   5.079   3.470 -0.8231  2.1378  0.3887
20523SOL     OW63562   0.664   8.615   1.439  0.0199 -0.0145  0.1445
20523SOL    HW163563   0.679   8.704   1.471  0.4255  0.0262 -0.1505
20523SOL    HW263564   0.715   8.610   1.358  0.2544 -0.6230  0.3296
20524SOL     OW63565   8.121   4.107   4.298  0.3682  0.0098  0.1419
20524SOL    HW163566   8.136   4.109   4.203  1.6740  0.5622  0.3347
20524SOL    HW263567   8.166   4.027   4.327 -1.4450 -1.0665  0.1052
20525SOL     OW63568   6.239   1.508   2.184  0.0996  0.1207 -0.0717
20525SOL    HW163569   6.293   1.433   2.157  1.3306  1.1057 -0.4545
20525SOL    HW263570   6.188   1.475   2.257 -1.3619 -1.8696 -1.8568
20526SOL     OW63571   2.644   5.641   7.724 -0.2144 -0.1688 -0.0964
20526SOL    HW163572   2.622   5.709   7.660 -0.3551  0.8281  0.9813
20526SOL    HW263573   2.706   5.683   7.784  1.0572 -1.5223 -0.3819
20527SOL     OW63574   6.986   5.353   0.557  0.0794  0.2586 -0.0699
20527SOL    HW163575   7.035   5.418   0.606 -1.9303  1.0432  1.0148
20527SOL    HW263576   7.047   5.323   0.489  2.1723  0.8010  1.4605
20528SOL     OW63577   0.642   6.802   1.489  0.0992 -0.2236 -0.0190
20528SOL    HW163578   0.555   6.825   1.521  0.6492  0.6740  0.8681
20528SOL    HW263579   0.682   6.886   1.466  0.5720 -0.6674 -0.8512
20529SOL     OW63580   7.644   8.360   3.612  0.6348 -0.2021  0.6058
20529SOL    HW163581   7.647   8.338   3.519  0.2353  2.4199 -0.1059
20529SOL    HW263582   7.723   8.319   3.649  1.2826 -0.5279 -1.0586
20530SOL     OW63583   1.145   5.653   4.572  0.4378 -0.3091 -0.4947
20530SOL    HW163584   1.137   5.736   4.525  2.5716 -0.7080 -1.6562
20530SOL    HW263585   1.127   5.586   4.507 -4.6038 -0.9410  1.0932
20531SOL     OW63586   7.928   5.616   5.931 -0.3023  0.3759 -0.3524
20531SOL    HW163587   7.990   5.685   5.904  0.8010  0.7885  2.8076
20531SOL    HW263588   7.852   5.664   5.963 -0.0970  0.1221  0.5611
20532SOL     OW63589   6.146   4.644   5.474 -0.1459  0.0975 -0.0538
20532SOL    HW163590   6.171   4.585   5.403 -1.2334 -0.8176  0.2832
20532SOL    HW263591   6.070   4.601   5.514 -0.6729  1.5115  0.5056
20533SOL     OW63592   3.337   0.993   2.651  0.2755  0.0926 -0.0921
20533SOL    HW163593   3.335   0.955   2.739  0.3489  0.3125  0.0039
20533SOL    HW263594   3.416   1.046   2.650 -0.1384  0.7239 -0.0294
20534SOL     OW63595   1.633   3.205   7.521 -0.4508 -0.2860  0.2481
20534SOL    HW163596   1.654   3.116   7.492 -1.2816 -0.5793  0.5076
20534SOL    HW263597   1.555   3.194   7.576 -1.3009  0.7444 -0.7187
20535SOL     OW63598   7.418   1.796   6.663  0.4896  0.2100 -0.9853
20535SOL    HW163599   7.438   1.859   6.594 -1.0617  1.9989  0.1101
20535SOL    HW263600   7.329   1.766   6.643  0.4408 -0.0686 -0.3625
20536SOL     OW63601   5.151   7.432   6.139 -0.1309 -0.6559 -0.2668
20536SOL    HW163602   5.225   7.402   6.191  0.3482  0.0996 -0.4912
20536SOL    HW263603   5.086   7.362   6.146 -0.7912  0.1550  2.7861
20537SOL     OW63604   4.489   4.359   3.483  0.1911  0.0909 -0.2466
20537SOL    HW163605   4.475   4.266   3.464  0.0550  0.0590  0.0093
20537SOL    HW263606   4.465   4.369   3.575 -0.1991  0.4633 -0.3837
20538SOL     OW63607   3.097   6.302   0.734  0.2135 -0.3489 -0.4320
20538SOL    HW163608   3.083   6.396   0.722  1.3541 -0.1727 -0.5229
20538SOL    HW263609   3.191   6.294   0.753  0.2557 -1.5159 -1.0136
20539SOL     OW63610   5.599   2.532   3.344  0.5989  0.1742 -0.2172
20539SOL    HW163611   5.691   2.557   3.336  0.3704  1.7949  1.4597
20539SOL    HW263612   5.565   2.537   3.254  1.9252  0.4397 -0.7320
20540SOL     OW63613   2.825   8.676   7.905 -0.4947  0.0997 -0.4543
20540SOL    HW163614   2.899   8.686   7.966 -1.1991 -0.1054  0.4650
20540SOL    HW263615   2.749   8.664   7.962 -1.0236 -1.2336 -1.3757
20541SOL     OW63616   3.982   2.380   0.970  0.1863  0.1611  0.0594
20541SOL    HW163617   4.062   2.431   0.985  0.3105 -0.1920  0.6162
20541SOL    HW263618   4.010   2.306   0.916  0.0293  0.6017 -0.6434
20542SOL     OW63619   3.096   1.234   3.049 -0.1962 -1.0208  0.3913
20542SOL    HW163620   3.140   1.150   3.037  1.0257 -0.4196  0.5329
20542SOL    HW263621   3.163   1.291   3.086  0.1416  1.1017 -3.0953
20543SOL     OW63622   4.181   1.727   8.676 -0.6670  0.6485 -0.2350
20543SOL    HW163623   4.195   1.716   8.582  0.7597 -2.2350  0.2165
20543SOL    HW263624   4.102   1.677   8.694  1.0437 -1.9817  0.5410
20544SOL     OW63625   4.618   2.001   5.866 -0.3039  0.4623  0.5517
20544SOL    HW163626   4.557   2.074   5.865  0.1141  0.8399  1.4169
20544SOL    HW263627   4.564   1.924   5.851 -0.7108  0.9562 -0.7087
20545SOL     OW63628   6.811   0.523   7.132 -0.1954 -0.4576  0.1268
20545SOL    HW163629   6.859   0.447   7.165  0.8785  0.2164  0.1408
20545SOL    HW263630   6.722   0.511   7.166  0.3230 -0.9659  1.3641
20546SOL     OW63631   1.518   1.796   2.419 -0.8192  0.2362 -0.0975
20546SOL    HW163632   1.431   1.816   2.453 -0.7996 -1.1978  0.9142
20546SOL    HW263633   1.502   1.746   2.339 -0.9190  0.0210  0.0577
20547SOL     OW63634   5.459   6.934   0.275 -0.4463 -0.0976 -0.1719
20547SOL    HW163635   5.420   6.851   0.304 -0.9970  0.3466  0.3986
20547SOL    HW263636   5.396   7.000   0.303  0.7937  0.6568  0.9124
20548SOL     OW63637   3.176   1.598   8.744 -0.6980  0.0377  0.2382
20548SOL    HW163638   3.220   1.515   8.731  3.0002  1.7148  0.7243
20548SOL    HW263639   3.158   1.602   8.838 -1.1740 -0.3193  0.1641
20549SOL     OW63640   2.294   3.456   2.247 -0.0982  0.1549  0.0527
20549SOL    HW163641   2.213   3.404   2.253 -0.3127  0.4885  0.1039
20549SOL    HW263642   2.264   3.547   2.251  0.0093  0.3980 -2.6268
20550SOL     OW63643   5.481   8.702   6.308 -0.3141  0.2031  0.1585
20550SOL    HW163644   5.389   8.706   6.336 -0.7950 -0.6469 -1.1696
20550SOL    HW263645   5.531   8.702   6.389 -1.4912  0.6396  0.9184
20551SOL     OW63646   0.437   3.524   8.756 -0.0773 -0.4333 -0.0702
20551SOL    HW163647   0.378   3.460   8.796  1.5391 -1.1840  1.2424
20551SOL    HW263648   0.518   3.475   8.740  0.3957  0.6969 -1.3187
20552SOL     OW63649   5.567   0.404   1.611 -0.0837 -0.2811 -0.0485
20552SOL    HW163650   5.572   0.388   1.705  0.7300 -1.2387 -0.2293
20552SOL    HW263651   5.498   0.345   1.580 -0.4637  0.1517 -0.0315
20553SOL     OW63652   2.005   7.234   6.604 -0.3837  0.1644 -0.3312
20553SOL    HW163653   2.043   7.146   6.613 -0.3792  0.2802  1.0995
20553SOL    HW263654   1.928   7.232   6.661  0.6013  1.6044  1.1278
20554SOL     OW63655   2.846   7.979   2.424 -0.1418  0.4979  0.5225
20554SOL    HW163656   2.911   7.936   2.480  1.5137 -0.8458 -2.1876
20554SOL    HW263657   2.888   8.061   2.397 -0.0067  0.1629 -0.3324
20555SOL     OW63658   4.629   5.664   6.087  0.1887 -0.2429 -0.1768
20555SOL    HW163659   4.585   5.582   6.106 -2.5627  0.9778 -0.7137
20555SOL    HW263660   4.632   5.668   5.991  0.1279  0.3552 -0.1594
20556SOL     OW63661   5.779   5.679   3.446  0.0403 -0.6387 -0.1846
20556SOL    HW163662   5.687   5.657   3.435  0.2770 -2.5484  1.1070
20556SOL    HW263663   5.821   5.647   3.366 -0.4847  1.0354 -1.1763
20557SOL     OW63664   3.349   2.109   8.189 -0.2190 -0.9160  0.5389
20557SOL    HW163665   3.377   2.144   8.274  0.4976  1.2968 -0.5400
20557SOL    HW263666   3.300   2.030   8.211  1.3261 -1.3186  2.9019
20558SOL     OW63667   1.689   4.395   6.124  0.1510  0.3100  0.0334
20558SOL    HW163668   1.599   4.426   6.132  0.5247  1.2148  1.0590
20558SOL    HW263669   1.687   4.306   6.160 -0.0271  0.9454  1.6713
20559SOL     OW63670   7.450   5.653   6.768  0.7861 -0.5107  0.0080
20559SOL    HW163671   7.541   5.646   6.738  0.6883 -1.9841  0.0027
20559SOL    HW263672   7.398   5.634   6.690  0.5209 -2.4185  0.5989
20560SOL     OW63673   2.787   5.911   5.279  0.2289 -0.1115 -0.0071
20560SOL    HW163674   2.782   5.941   5.370  0.9026  0.3879 -0.1326
20560SOL    HW263675   2.695   5.902   5.252  0.0202  0.8741  0.3477
20561SOL     OW63676   1.670   7.015   7.934 -0.3318 -0.3052 -0.3949
20561SOL    HW163677   1.604   6.946   7.942 -0.8829  0.1922 -0.5615
20561SOL    HW263678   1.728   6.984   7.865 -0.4556 -0.7001 -0.3263
20562SOL     OW63679   4.086   3.734   8.859 -0.2327 -0.0861  0.7133
20562SOL    HW163680   4.114   3.822   8.883 -0.5641  0.3307 -0.3574
20562SOL    HW263681   4.108   3.726   8.766  0.4099 -1.3847  0.9519
20563SOL     OW63682   8.345   8.203   5.453  0.3953 -0.4504  0.1833
20563SOL    HW163683   8.338   8.157   5.537 -3.6928 -1.8824 -0.6949
20563SOL    HW263684   8.332   8.134   5.388  2.1203  0.8423 -1.6049
20564SOL     OW63685   7.169   7.662   7.837 -0.2439 -0.4319 -0.3335
20564SOL    HW163686   7.185   7.748   7.876 -0.4942 -0.5892  0.1231
20564SOL    HW263687   7.252   7.615   7.847 -0.2929 -0.4552 -0.0315
20565SOL     OW63688   3.855   2.713   5.244  0.2828  0.2533 -0.3039
20565SOL    HW163689   3.901   2.721   5.161 -2.1036 -0.8212 -1.8495
20565SOL    HW263690   3.836   2.620   5.253 -1.1165  0.5689  0.4573
20566SOL     OW63691   4.457   2.674   5.683  0.1187  0.0920 -0.2306
20566SOL    HW163692   4.472   2.769   5.690  2.4711 -0.1254 -1.3688
20566SOL    HW263693   4.475   2.654   5.591  0.3335 -1.5727  0.1445
20567SOL     OW63694   1.204   6.453   3.194  0.0183  0.3613 -0.1449
20567SOL    HW163695   1.141   6.513   3.234  0.3600  0.4805  0.2219
20567SOL    HW263696   1.206   6.378   3.253 -0.2662  0.0615 -0.5043
20568SOL     OW63697   3.886   6.673   6.019 -0.4860  0.1447  0.2638
20568SOL    HW163698   3.824   6.655   6.090  0.1416  1.8298  1.3010
20568SOL    HW263699   3.946   6.598   6.020 -1.4327 -0.6344  0.4181
20569SOL     OW63700   3.124   4.389   0.784 -0.1488 -0.7473  0.3678
20569SOL    HW163701   3.177   4.462   0.817  0.7674 -1.6640  0.9635
20569SOL    HW263702   3.078   4.426   0.709  1.2992  0.0959 -0.1472
20570SOL     OW63703   5.011   7.453   7.031 -0.2496  0.3071  0.3051
20570SOL    HW163704   4.925   7.494   7.033 -0.6923 -0.5147 -1.0322
20570SOL    HW263705   5.061   7.499   7.099 -0.6486  3.2267 -1.2061
20571SOL     OW63706   2.231   2.362   5.429 -0.3392 -0.2707  0.0264
20571SOL    HW163707   2.306   2.385   5.373  0.5695  0.3351  1.4250
20571SOL    HW263708   2.155   2.395   5.381  0.5421  1.6381 -0.1766
20572SOL     OW63709   5.290   5.913   4.838 -0.1767  0.0520 -0.2632
20572SOL    HW163710   5.253   5.872   4.917  1.5106 -1.3029 -0.1087
20572SOL    HW263711   5.336   5.990   4.871  0.0536 -0.1990  0.0117
20573SOL     OW63712   1.043   4.635   5.662 -0.1031 -0.4330 -0.6060
20573SOL    HW163713   1.078   4.709   5.711  1.4963 -1.5367  0.0290
20573SOL    HW263714   1.076   4.647   5.573  0.3485 -0.4886 -0.4486
20574SOL     OW63715   5.268   7.402   1.014 -0.4878 -0.5376  0.8703
20574SOL    HW163716   5.286   7.471   1.078  1.8920 -0.7778  0.5658
20574SOL    HW263717   5.173   7.395   1.012 -0.8017  2.3739  1.2759
20575SOL     OW63718   0.030   4.125   5.484  0.1933  0.5808  0.3601
20575SOL    HW163719  -0.051   4.108   5.531  0.2448  1.7207  0.9018
20575SOL    HW263720   0.002   4.145   5.395  0.0128 -0.5298  0.1545
20576SOL     OW63721   3.038   7.835   0.779 -0.0181 -0.0430 -0.0370
20576SOL    HW163722   3.126   7.809   0.808  1.0886  0.1434 -2.9291
20576SOL    HW263723   3.036   7.930   0.789 -0.5211 -0.1827  1.4805
20577SOL     OW63724   8.450   8.494   8.014 -0.0370 -0.0514 -0.3004
20577SOL    HW163725   8.479   8.407   8.041  1.1961  0.2551 -0.5846
20577SOL    HW263726   8.497   8.554   8.071 -1.3318  0.4321  0.2964
20578SOL     OW63727   6.068   2.098   3.095 -0.1354  0.2018 -0.2766
20578SOL    HW163728   6.060   2.126   3.186  0.0167 -0.6943  0.0279
20578SOL    HW263729   6.007   2.024   3.087  0.8895 -0.6533 -0.4944
20579SOL     OW63730   2.563   6.665   7.140 -0.1804  0.3873  0.0818
20579SOL    HW163731   2.563   6.743   7.084  0.4061  0.2777 -0.0743
20579SOL    HW263732   2.528   6.697   7.224 -0.3575  0.7170 -0.1109
20580SOL     OW63733   0.729   2.578   7.700  0.1196  0.1499 -0.2040
20580SOL    HW163734   0.812   2.535   7.720 -1.2850 -2.6978  0.0334
20580SOL    HW263735   0.733   2.593   7.605  0.3426 -1.3690 -0.4658
20581SOL     OW63736   8.433   1.417   2.505  0.1287 -0.2789  0.2616
20581SOL    HW163737   8.377   1.374   2.569 -2.6874 -0.7113 -2.2582
20581SOL    HW263738   8.461   1.346   2.446  0.8446  0.3957 -0.2347
20582SOL     OW63739   7.970   5.165   1.918 -0.1677  0.0368  0.1676
20582SOL    HW163740   8.018   5.085   1.894  0.2929 -0.3127  2.0477
20582SOL    HW263741   7.912   5.137   1.989  0.3302  1.4384  1.1720
20583SOL     OW63742   5.044   3.729   3.673  0.5854  0.4645 -0.4271
20583SOL    HW163743   5.047   3.825   3.675 -2.1544  0.6202 -0.7866
20583SOL    HW263744   5.009   3.707   3.587 -0.2315 -0.7786  0.1807
20584SOL     OW63745   7.457   4.645   6.860 -0.3935  0.1188 -0.1346
20584SOL    HW163746   7.437   4.687   6.776 -1.8180 -0.2414 -0.0091
20584SOL    HW263747   7.538   4.687   6.889 -0.5417  1.1366 -1.0978
20585SOL     OW63748   1.800   7.995   1.751 -0.4280 -0.9623 -0.4670
20585SOL    HW163749   1.815   8.076   1.799 -0.4656 -0.0689 -1.9238
20585SOL    HW263750   1.871   7.991   1.688 -0.8353 -1.6965 -0.8879
20586SOL     OW63751   3.320   2.636   3.295  0.2946  0.5182 -0.3279
20586SOL    HW163752   3.387   2.606   3.233  0.4835 -1.3360  0.7141
20586SOL    HW263753   3.353   2.610   3.380 -2.1043 -1.1815  0.1643
20587SOL     OW63754   4.486   1.912   6.397  0.5392 -0.3258 -0.1920
20587SOL    HW163755   4.556   1.863   6.441 -0.1002  0.4911  1.8750
20587SOL    HW263756   4.412   1.904   6.457 -0.6620  0.1624 -1.5818
20588SOL     OW63757   3.499   2.699   2.070  0.3290  0.6133  0.0157
20588SOL    HW163758   3.447   2.735   2.142 -2.5396 -2.0301 -0.5016
20588SOL    HW263759   3.461   2.738   1.991 -1.6445 -1.8830 -0.4193
20589SOL     OW63760   7.465   7.732   7.593  0.2544  0.6238 -0.2805
20589SOL    HW163761   7.553   7.764   7.577  0.3042  0.3071 -0.6597
20589SOL    HW263762   7.410   7.810   7.590  0.5477  0.8535  0.1862
20590SOL     OW63763   8.370   8.306   5.721 -0.4083  0.0638  0.1246
20590SOL    HW163764   8.433   8.317   5.649 -0.0669  2.9668  0.7338
20590SOL    HW263765   8.411   8.351   5.795 -1.6217 -1.1737  1.6031
20591SOL     OW63766   6.135   1.386   6.760 -0.5803  0.4873 -0.7059
20591SOL    HW163767   6.214   1.336   6.781 -0.4893  0.7836 -0.3389
20591SOL    HW263768   6.167   1.471   6.729 -0.7745  1.0123  0.5052
20592SOL     OW63769   7.901   1.225   1.334  0.0277 -0.0617  0.3297
20592SOL    HW163770   7.888   1.188   1.246 -1.0299  0.3186  0.3095
20592SOL    HW263771   7.942   1.154   1.384  1.3267 -0.0367 -0.6473
20593SOL     OW63772   1.841   1.096   4.303  0.6654 -0.1198 -0.5499
20593SOL    HW163773   1.903   1.037   4.345 -0.9542 -2.0390 -0.6559
20593SOL    HW263774   1.787   1.039   4.248 -2.1668  1.1180  0.7058
20594SOL     OW63775   8.628   1.529   5.395  0.2293  0.4136  0.4709
20594SOL    HW163776   8.670   1.524   5.481  1.9711  1.2101 -0.2635
20594SOL    HW263777   8.698   1.561   5.337 -0.7684 -0.5097 -1.3233
20595SOL     OW63778   6.448   0.003   5.553  0.3376  0.4238 -0.3122
20595SOL    HW163779   6.544   0.004   5.557  0.3423 -1.0470  0.3620
20595SOL    HW263780   6.423   0.094   5.567  1.6314  0.8626 -0.6612
20596SOL     OW63781   5.415   5.841   4.605  0.2711  0.3682  0.1806
20596SOL    HW163782   5.344   5.872   4.661 -0.9253  0.1853 -1.1840
20596SOL    HW263783   5.430   5.750   4.633  0.2092  0.5204  0.7073
20597SOL     OW63784   6.921   1.614   7.292  0.2071 -0.5006 -0.2620
20597SOL    HW163785   6.986   1.666   7.245 -0.3070  0.4352  0.0151
20597SOL    HW263786   6.853   1.595   7.226  0.1737 -0.4194 -0.2515
20598SOL     OW63787   2.071   6.619   2.164  0.5286  0.4697  0.0340
20598SOL    HW163788   1.980   6.629   2.135  0.4289 -0.9597 -0.2157
20598SOL    HW263789   2.070   6.544   2.223  2.0862 -2.0045 -2.8053
20599SOL     OW63790   8.860   1.131   1.057  0.3394 -0.2221 -0.4150
20599SOL    HW163791   8.782   1.185   1.037  0.1627 -0.4926 -0.4587
20599SOL    HW263792   8.934   1.189   1.037  0.1658  0.7286  1.4378
20600SOL     OW63793   2.646   8.154   5.046 -0.2107 -0.5364  0.2557
20600SOL    HW163794   2.601   8.102   4.979 -0.5495 -2.5357  1.9363
20600SOL    HW263795   2.733   8.115   5.051 -0.3150 -0.6457  1.2441
20601SOL     OW63796   4.594   4.075   0.154  0.2239  0.4196 -0.0034
20601SOL    HW163797   4.545   3.993   0.147  1.1514 -0.2291  0.7694
20601SOL    HW263798   4.529   4.140   0.180 -0.7705  0.2208 -1.8336
20602SOL     OW63799   2.648   2.077   7.443 -0.3055 -0.1482  0.5337
20602SOL    HW163800   2.592   2.096   7.368 -0.8865 -3.5868 -0.0749
20602SOL    HW263801   2.600   2.112   7.518 -0.9823  1.0471 -0.4154
20603SOL     OW63802   6.530   8.041   8.012  0.9259 -0.2062 -0.2308
20603SOL    HW163803   6.553   7.976   8.079  0.0605 -1.1561 -0.8361
20603SOL    HW263804   6.522   7.991   7.931  0.0353  0.6284 -0.6766
20604SOL     OW63805   4.552   3.694   8.544  0.6264  0.1583  0.0129
20604SOL    HW163806   4.478   3.659   8.496 -0.5968 -0.0302  1.9242
20604SOL    HW263807   4.624   3.693   8.481 -0.7765 -0.3817 -1.6728
20605SOL     OW63808   6.245   8.278   2.388  0.0348 -0.2141  0.3995
20605SOL    HW163809   6.179   8.330   2.434 -1.6385 -0.5000 -1.5097
20605SOL    HW263810   6.208   8.191   2.382  1.1675 -0.7114  0.3757
20606SOL     OW63811   5.143   5.585   5.557 -0.0661 -0.1631  0.1584
20606SOL    HW163812   5.061   5.618   5.593  0.2686  1.2725 -0.3231
20606SOL    HW263813   5.198   5.569   5.634 -0.8122 -1.1884  0.4811
20607SOL     OW63814   2.607   0.291   0.499  0.6786  0.3456  0.2381
20607SOL    HW163815   2.514   0.312   0.489  0.0259 -2.1386  0.1984
20607SOL    HW263816   2.637   0.349   0.569 -1.1348  0.6497  0.8371
20608SOL     OW63817   7.854   3.255   0.193  0.6983  0.3306  0.1231
20608SOL    HW163818   7.898   3.204   0.124  0.7366  0.0339  0.3649
20608SOL    HW263819   7.907   3.240   0.271  0.3277  0.2034  0.3497
20609SOL     OW63820   6.458   0.542   8.187  0.0740  0.0124  0.5359
20609SOL    HW163821   6.488   0.528   8.097 -0.4991  0.5248  0.2469
20609SOL    HW263822   6.420   0.458   8.213 -1.2348  0.3001 -0.3129
20610SOL     OW63823   1.173   6.033   7.693 -0.0199 -0.2652 -0.0773
20610SOL    HW163824   1.233   6.101   7.723 -0.8296  0.2813  0.3413
20610SOL    HW263825   1.112   6.020   7.765 -2.1323  1.2291 -1.4835
20611SOL     OW63826   6.817   7.106   7.652 -0.1210  0.3262 -0.0698
20611SOL    HW163827   6.832   7.165   7.578  2.5468 -0.1977 -0.0323
20611SOL    HW263828   6.860   7.150   7.726 -2.3959  0.6441  1.1392
20612SOL     OW63829   6.765   3.158   5.024 -0.2401 -0.5540 -0.4931
20612SOL    HW163830   6.754   3.231   4.963 -0.9255  0.4368  0.7378
20612SOL    HW263831   6.679   3.149   5.066  0.1075 -1.4304  0.0576
20613SOL     OW63832   2.531   2.247   1.600  0.9598  0.0864 -0.2018
20613SOL    HW163833   2.438   2.266   1.591  1.3082  1.9418 -0.3814
20613SOL    HW263834   2.541   2.157   1.569 -0.9572 -0.6433  1.0846
20614SOL     OW63835   5.005   1.812   8.209  0.3846 -0.1062  0.2531
20614SOL    HW163836   4.927   1.806   8.264 -0.3929  1.7290 -0.5714
20614SOL    HW263837   5.039   1.722   8.206 -2.3900 -1.2511 -0.3644
20615SOL     OW63838   1.221   4.446   3.558 -0.4179 -0.0393  0.2603
20615SOL    HW163839   1.306   4.475   3.593  1.1980  0.4022 -3.5210
20615SOL    HW263840   1.169   4.526   3.553  0.3561  0.4331 -0.7868
20616SOL     OW63841   4.094   7.114   1.680  0.5539 -0.3889 -0.4176
20616SOL    HW163842   4.053   7.146   1.599 -1.0102 -0.7915  0.1780
20616SOL    HW263843   4.164   7.177   1.697 -1.1103  1.5902 -0.3898
20617SOL     OW63844   1.540   0.290   0.325  0.1303 -0.1378 -0.0651
20617SOL    HW163845   1.577   0.202   0.331  0.0930 -0.2232 -0.9069
20617SOL    HW263846   1.479   0.285   0.252  1.7347  1.1226 -1.5775
20618SOL     OW63847   2.984   0.552   4.320 -0.0360 -0.2038  0.2551
20618SOL    HW163848   3.012   0.489   4.253  0.1064  0.3273 -0.1875
20618SOL    HW263849   2.907   0.510   4.360  0.2962 -0.8412  0.2442
20619SOL     OW63850   4.036   4.788   0.482  0.2516  0.6680 -0.3580
20619SOL    HW163851   4.130   4.786   0.469  0.3161  2.0357 -0.3334
20619SOL    HW263852   4.002   4.832   0.403 -0.0546  2.6687  0.8111
20620SOL     OW63853   8.108   2.175   8.151 -0.0178 -0.1645 -0.0381
20620SOL    HW163854   8.203   2.178   8.160 -0.0798 -0.5740  0.8725
20620SOL    HW263855   8.085   2.084   8.172 -0.8703  0.5831  2.6751
20621SOL     OW63856   1.857   8.413   8.024  0.1217 -0.4609 -0.1018
20621SOL    HW163857   1.929   8.375   8.074  0.2223  0.0908  0.1803
20621SOL    HW263858   1.780   8.399   8.079  0.4786  1.6287  1.0291
20622SOL     OW63859   0.291   6.579   4.609  0.1163 -0.7278 -0.1160
20622SOL    HW163860   0.241   6.656   4.580 -2.7970 -2.0175  1.1169
20622SOL    HW263861   0.368   6.577   4.551  0.1871  2.8919 -0.3792
20623SOL     OW63862   7.625   8.072   2.336  0.1391  0.5051  0.1687
20623SOL    HW163863   7.629   7.979   2.317 -0.4993  0.3350  0.8400
20623SOL    HW263864   7.681   8.083   2.414 -0.3681  0.5617  0.5274
20624SOL     OW63865   1.658   1.028   0.619  0.1139  0.0625  0.4664
20624SOL    HW163866   1.580   1.075   0.590  0.7290  1.4812  1.0409
20624SOL    HW263867   1.688   0.981   0.541 -1.7074 -1.1197  0.4179
20625SOL     OW63868   3.617   0.857   1.461 -0.3069  0.2218  0.2398
20625SOL    HW163869   3.624   0.765   1.435  3.5159 -0.0165  1.4849
20625SOL    HW263870   3.611   0.905   1.379 -1.0230 -1.0424 -0.4862
20626SOL     OW63871   2.570   7.964   5.419  0.2029  0.4503  0.0080
20626SOL    HW163872   2.521   8.042   5.394 -0.4150 -0.5237 -2.0922
20626SOL    HW263873   2.506   7.907   5.462  0.5502  0.9106  1.1528
20627SOL     OW63874   2.906   0.837   2.745  0.3109  0.6482 -0.3246
20627SOL    HW163875   2.848   0.862   2.673 -0.4249 -0.7919 -0.2670
20627SOL    HW263876   2.971   0.780   2.705  0.6093  0.7991 -0.0607
20628SOL     OW63877   3.952   7.983   8.102  0.0974  0.1326  0.1972
20628SOL    HW163878   3.901   8.062   8.119 -1.9304 -1.5606  2.6199
20628SOL    HW263879   3.889   7.921   8.066  1.6886 -0.4120 -1.8348
20629SOL     OW63880   8.775   2.933   8.096  0.0773 -0.2261 -0.8897
20629SOL    HW163881   8.710   2.997   8.067 -0.5378 -0.0190  0.8479
20629SOL    HW263882   8.734   2.889   8.171  1.2974 -1.2359 -0.7870
20630SOL     OW63883   0.285   6.745   4.004 -0.7094  0.2319  0.9195
20630SOL    HW163884   0.261   6.822   4.055  0.6089  0.5817  1.0479
20630SOL    HW263885   0.351   6.777   3.942  0.6363 -0.9748  1.6700
20631SOL     OW63886   0.065   3.659   1.488 -0.2305  1.1237 -0.4519
20631SOL    HW163887   0.051   3.564   1.487 -3.0217  1.4525 -0.6621
20631SOL    HW263888   0.019   3.691   1.411 -0.5259  2.7582  0.3541
20632SOL     OW63889   8.357   7.660   7.419  0.0317 -0.5224  0.2811
20632SOL    HW163890   8.332   7.688   7.507  0.3869 -1.6926  0.7745
20632SOL    HW263891   8.277   7.623   7.383  0.0284 -0.5537  0.3202
20633SOL     OW63892   0.635   8.683   0.808 -0.0961 -0.6339 -0.5745
20633SOL    HW163893   0.693   8.746   0.850  1.0079 -0.7929 -1.8219
20633SOL    HW263894   0.591   8.733   0.739 -0.0932 -0.9486 -0.8070
20634SOL     OW63895   4.274   7.303   7.364 -0.3974 -0.2989  0.2632
20634SOL    HW163896   4.199   7.242   7.364  0.7052 -1.7071 -0.1722
20634SOL    HW263897   4.296   7.314   7.456  1.3508 -3.1494  0.3033
20635SOL     OW63898   0.574   5.644   7.164  0.4745 -0.0269  0.4607
20635SOL    HW163899   0.529   5.684   7.089  1.3706 -0.5339 -0.3690
20635SOL    HW263900   0.663   5.677   7.158  0.6914 -0.5098  0.9957
20636SOL     OW63901   1.393   3.995   5.941 -0.5002  0.8409  0.0089
20636SOL    HW163902   1.441   4.065   5.898 -2.1482  2.3255  0.4514
20636SOL    HW263903   1.336   3.959   5.873 -0.3281  0.5652  0.0096
20637SOL     OW63904   2.323   4.015   8.785  0.8851 -0.2759  0.5680
20637SOL    HW163905   2.326   3.935   8.732  0.2612 -0.4266  0.7517
20637SOL    HW263906   2.415   4.037   8.801  1.0804 -0.1465 -0.6898
20638SOL     OW63907   8.609   2.688   8.496  0.5893  0.3828  0.5725
20638SOL    HW163908   8.654   2.643   8.567  0.7892  0.6722  0.6306
20638SOL    HW263909   8.529   2.722   8.536 -0.2010 -0.9927  0.2382
20639SOL     OW63910   3.212   0.185   0.629 -0.3601  0.1608 -0.6406
20639SOL    HW163911   3.264   0.118   0.585 -0.8259  0.0120 -0.9668
20639SOL    HW263912   3.213   0.260   0.570  0.8518  0.7616  0.0871
20640SOL     OW63913   0.849   5.508   7.962 -0.6388  0.0445 -0.2953
20640SOL    HW163914   0.859   5.459   7.880  0.2215 -0.8792  0.3287
20640SOL    HW263915   0.858   5.600   7.937 -1.9470 -0.1069 -1.4525
20641SOL     OW63916   1.122   3.452   0.847  0.2576 -0.1231 -0.3755
20641SOL    HW163917   1.179   3.520   0.811  2.1528 -0.0037  2.5384
20641SOL    HW263918   1.078   3.494   0.921 -0.4184 -1.3941 -0.0256
20642SOL     OW63919   7.368   7.738   2.245 -0.0015  0.1008 -0.1694
20642SOL    HW163920   7.282   7.710   2.277  0.3867 -0.2553  0.6185
20642SOL    HW263921   7.394   7.670   2.183 -0.7125  0.7327 -1.1810
20643SOL     OW63922   2.875   2.732   7.620 -0.1926 -0.0784 -0.1373
20643SOL    HW163923   2.831   2.679   7.553 -0.3911 -1.7180  1.2061
20643SOL    HW263924   2.811   2.799   7.643 -0.3968  0.0561 -1.0701
20644SOL     OW63925   7.158   5.265   4.876  0.0446 -0.5649  0.2300
20644SOL    HW163926   7.224   5.263   4.807  3.4651  0.7577  3.1702
20644SOL    HW263927   7.188   5.333   4.937 -3.1055 -1.1384  2.7088
20645SOL     OW63928   2.249   2.727   0.445  0.2754 -0.3470 -0.4798
20645SOL    HW163929   2.196   2.781   0.504  0.4194 -1.2766  0.5122
20645SOL    HW263930   2.339   2.756   0.460  0.2293  0.0257 -0.8980
20646SOL     OW63931   7.792   0.411   1.187  0.5908 -0.0226 -0.0438
20646SOL    HW163932   7.842   0.340   1.227  1.2068  0.7853  0.6654
20646SOL    HW263933   7.849   0.444   1.117  0.4633  0.0184 -0.1300
20647SOL     OW63934   3.999   8.657   7.645 -0.0385  0.2206 -0.4672
20647SOL    HW163935   3.974   8.582   7.698 -2.5841  2.0038  1.0690
20647SOL    HW263936   4.077   8.692   7.688  1.0552 -1.3227 -1.0825
20648SOL     OW63937   0.936   3.460   0.649  0.3243 -0.1811  0.0496
20648SOL    HW163938   0.979   3.462   0.735 -1.1505  0.3488  0.8182
20648SOL    HW263939   0.850   3.421   0.667 -0.0251 -0.0017 -1.1836
20649SOL     OW63940   6.945   5.690   3.937  0.1732  0.0519 -0.3750
20649SOL    HW163941   6.859   5.696   3.894 -0.4898  0.4267  0.9489
20649SOL    HW263942   6.930   5.633   4.012  0.4927  1.9303  1.1848
20650SOL     OW63943   7.263   8.754   4.093 -0.1205 -0.0801  0.4095
20650SOL    HW163944   7.240   8.786   4.180 -1.0210 -0.5386  0.3473
20650SOL    HW263945   7.357   8.738   4.097  0.2709  2.0286  0.6189
20651SOL     OW63946   3.451   6.002   5.901 -0.0499  0.3239 -0.1124
20651SOL    HW163947   3.520   5.947   5.863 -0.6410 -0.6316  0.1630
20651SOL    HW263948   3.374   5.984   5.847 -0.4770  0.2054  0.5269
20652SOL     OW63949   3.143   0.681   4.712 -0.0921  0.5506 -0.1555
20652SOL    HW163950   3.162   0.628   4.634  0.3126 -0.7930  0.8269
20652SOL    HW263951   3.179   0.767   4.691  0.1573  0.1670 -1.3931
20653SOL     OW63952   7.577   5.251   6.140  0.3089 -0.0883 -0.1196
20653SOL    HW163953   7.511   5.314   6.110 -0.9681  0.1281  2.8046
20653SOL    HW263954   7.534   5.204   6.212  2.8837 -0.9162  0.9879
20654SOL     OW63955   3.807   4.944   8.295  0.5135 -0.0368 -0.2819
20654SOL    HW163956   3.819   4.887   8.372  0.6638  0.8609  0.3799
20654SOL    HW263957   3.724   4.988   8.310  1.6909  2.0411  0.6787
20655SOL     OW63958   6.114   4.508   1.949  0.1863  0.2684 -0.3031
20655SOL    HW163959   6.199   4.544   1.973 -0.0934  2.1042 -1.8720
20655SOL    HW263960   6.050   4.572   1.980 -0.5608 -0.5089 -0.1829
20656SOL     OW63961   8.403   3.718   0.839  0.1138 -0.2841  0.0675
20656SOL    HW163962   8.462   3.662   0.789  0.8616 -0.7352  1.3967
20656SOL    HW263963   8.429   3.807   0.817  1.4413 -0.4747  0.7614
20657SOL     OW63964   1.181   3.132   7.902  0.2256 -0.7304  0.1689
20657SOL    HW163965   1.268   3.152   7.865 -0.0319  1.2074  0.5402
20657SOL    HW263966   1.120   3.157   7.833 -0.1286  0.2963  0.8279
20658SOL     OW63967   3.234   1.694   3.652  0.1642  0.1608 -0.5108
20658SOL    HW163968   3.307   1.722   3.708  0.6861  0.8823 -1.5081
20658SOL    HW263969   3.254   1.603   3.630 -0.2673 -0.2693  0.7871
20659SOL     OW63970   8.430   2.899   6.766 -0.0456 -0.3696  0.1088
20659SOL    HW163971   8.355   2.918   6.822  0.0620  1.2357 -0.2376
20659SOL    HW263972   8.401   2.829   6.708 -1.1390 -0.0345  0.2434
20660SOL     OW63973   2.571   6.588   8.120 -0.0547 -0.5848 -0.0540
20660SOL    HW163974   2.568   6.678   8.087 -0.1288 -0.0761  1.2993
20660SOL    HW263975   2.480   6.567   8.141  0.2414 -0.0979  1.8680
20661SOL     OW63976   2.444   1.923   1.008  0.7828 -0.3382  0.6774
20661SOL    HW163977   2.352   1.909   0.989  0.2386  2.1697  1.0672
20661SOL    HW263978   2.446   1.944   1.102  1.7792 -0.6876  0.7440
20662SOL     OW63979   0.038   5.039   3.866  0.1460  0.0519  0.7868
20662SOL    HW163980   0.058   5.121   3.820 -1.6793  0.0191 -0.1427
20662SOL    HW263981  -0.021   5.066   3.936 -0.7224 -0.5107  0.2753
20663SOL     OW63982   8.109   7.708   6.551  0.0394  0.4130  0.1915
20663SOL    HW163983   8.178   7.746   6.605 -0.6964 -0.0919  1.5575
20663SOL    HW263984   8.028   7.745   6.587 -0.4519  0.4410 -0.8982
20664SOL     OW63985   5.020   8.386   7.581 -0.0553  0.1926  0.6837
20664SOL    HW163986   5.077   8.312   7.599  0.3943 -0.2030 -1.8699
20664SOL    HW263987   5.080   8.458   7.560 -0.4102 -0.0302 -1.3239
20665SOL     OW63988   5.983   8.422   2.778 -0.0193  0.1483  0.2354
20665SOL    HW163989   5.938   8.366   2.841  0.6294  2.3798  2.8632
20665SOL    HW263990   6.004   8.501   2.827  1.9458  1.4030 -2.3946
20666SOL     OW63991   8.352   3.566   5.949 -0.1686  0.2342 -0.4671
20666SOL    HW163992   8.276   3.611   5.912 -0.8640  0.3938  1.0576
20666SOL    HW263993   8.339   3.573   6.044  1.7378  0.2315 -0.1753
20667SOL     OW63994   0.113   0.673   2.720 -1.1139 -0.1147  0.0566
20667SOL    HW163995   0.119   0.707   2.809  0.7562  0.5099 -0.2582
20667SOL    HW263996   0.152   0.742   2.666 -1.9932 -0.5895 -1.2228
20668SOL     OW63997   7.066   1.167   8.057 -0.0082 -0.1034 -0.0213
20668SOL    HW163998   7.003   1.209   8.116  0.4113  0.5904 -0.0660
20668SOL    HW263999   7.038   1.193   7.970 -0.0576 -0.3454 -0.0785
20669SOL     OW64000   6.476   5.896   0.481 -0.2027 -0.0832 -0.3160
20669SOL    HW164001   6.507   5.957   0.414 -2.5534  1.1617 -0.3825
20669SOL    HW264002   6.473   5.811   0.436  2.1211 -0.1194 -0.5300
20670SOL     OW64003   7.948   0.509   6.129  0.2187  0.0996  0.0061
20670SOL    HW164004   7.972   0.602   6.127 -0.2073  0.2105 -0.3274
20670SOL    HW264005   8.023   0.464   6.091 -0.0150  0.4172 -0.8497
20671SOL     OW64006   4.612   3.366   3.564  0.0391 -0.2310 -0.0813
20671SOL    HW164007   4.652   3.325   3.487  0.6014  1.2227 -0.6114
20671SOL    HW264008   4.668   3.342   3.637  0.6982  0.0727 -0.4800
20672SOL     OW64009   1.834   4.766   5.411 -0.2357  0.4840 -0.0762
20672SOL    HW164010   1.898   4.833   5.433  2.2199 -0.7197 -2.9152
20672SOL    HW264011   1.865   4.687   5.455  1.4552 -0.5458 -2.8761
20673SOL     OW64012   8.022   4.278   8.866 -0.6099 -0.3971  0.0799
20673SOL    HW164013   7.980   4.199   8.833  0.7315 -1.2095  0.2523
20673SOL    HW264014   8.040   4.330   8.787 -1.8383 -0.0630  0.0001
20674SOL     OW64015   6.750   5.789   7.082 -0.3234 -0.2677 -0.1445
20674SOL    HW164016   6.725   5.881   7.071  0.8254  0.0104 -0.5837
20674SOL    HW264017   6.802   5.769   7.004  1.2049 -0.6555  0.9353
20675SOL     OW64018   3.095   7.121   2.217  0.0794 -0.2892 -0.0960
20675SOL    HW164019   3.081   7.192   2.154 -0.4640  1.8423  2.3049
20675SOL    HW264020   3.064   7.043   2.171 -4.1648  1.6972 -1.1379
20676SOL     OW64021   5.984   5.564   4.811 -0.0923  0.2810 -0.1706
20676SOL    HW164022   5.992   5.518   4.895  0.9906 -0.6398 -0.7551
20676SOL    HW264023   5.891   5.586   4.805 -0.8459 -2.5108 -0.1672
20677SOL     OW64024   5.660   1.739   8.418  0.1033  0.3664  0.1418
20677SOL    HW164025   5.668   1.805   8.349 -1.0353  0.3210 -0.0582
20677SOL    HW264026   5.645   1.789   8.498 -0.6619  0.3640  0.0064
20678SOL     OW64027   7.755   3.597   3.380  0.1836 -0.2912 -0.2389
20678SOL    HW164028   7.830   3.544   3.353  0.4451 -0.3553  0.5873
20678SOL    HW264029   7.730   3.563   3.465  0.2972  0.8345  0.2722
20679SOL     OW64030   8.599   7.004   7.556  0.2156 -0.1458  0.2202
20679SOL    HW164031   8.588   7.020   7.462  1.2636 -0.6193  0.0100
20679SOL    HW264032   8.684   7.042   7.577 -0.2641  0.4688  1.1091
20680SOL     OW64033   1.607   0.010   0.417  0.1801 -0.1509 -0.2977
20680SOL    HW164034   1.605  -0.081   0.445  0.8752 -0.2982 -0.7103
20680SOL    HW264035   1.700   0.033   0.416  0.0898  0.2099 -1.3187
20681SOL     OW64036   8.286   1.135   3.270 -0.1636  0.1252 -0.0282
20681SOL    HW164037   8.247   1.099   3.350 -0.6681 -2.3072 -1.2802
20681SOL    HW264038   8.315   1.058   3.221  1.0856  1.6082 -1.7289
20682SOL     OW64039   6.260   4.672   3.051 -0.0184 -0.9311 -0.2384
20682SOL    HW164040   6.216   4.751   3.020  1.5164 -0.3522 -1.0802
20682SOL    HW264041   6.190   4.615   3.083 -1.3092  0.0802 -1.1889
20683SOL     OW64042   0.807   5.496   8.232  0.9292 -0.1761  0.4045
20683SOL    HW164043   0.752   5.430   8.275 -0.4080  0.7015  0.1150
20683SOL    HW264044   0.796   5.481   8.139 -0.1224  0.9913  0.3128
20684SOL     OW64045   2.257   0.643   3.520 -0.1893  0.1926 -0.1730
20684SOL    HW164046   2.201   0.641   3.442  0.3776  2.0247 -0.6666
20684SOL    HW264047   2.196   0.639   3.593 -1.1889  3.5731 -0.6670
20685SOL     OW64048   0.122   3.679   2.148 -0.2020  0.1526 -0.2880
20685SOL    HW164049   0.079   3.755   2.187  1.7418  0.4913  1.3564
20685SOL    HW264050   0.081   3.604   2.191 -2.1931  0.1705 -1.9848
20686SOL     OW64051   8.848   5.343   0.060  0.3667  0.1593 -0.2229
20686SOL    HW164052   8.755   5.367   0.058  0.2130 -0.3722  0.1425
20686SOL    HW264053   8.870   5.323  -0.031 -0.1259 -0.5899 -0.1916
20687SOL     OW64054   7.096   2.791   0.972  0.3840 -0.4288  0.3886
20687SOL    HW164055   7.177   2.839   0.959 -0.8852  1.8637  0.3057
20687SOL    HW264056   7.044   2.811   0.894 -0.5002 -1.3332  0.7242
20688SOL     OW64057   6.539   5.497   3.187  0.0248 -0.1416  0.3815
20688SOL    HW164058   6.606   5.565   3.196 -0.4935  0.7951 -1.9273
20688SOL    HW264059   6.584   5.426   3.142 -0.2560  0.1007 -0.3013
20689SOL     OW64060   0.294   4.499   4.437  0.2930  0.2957 -0.4630
20689SOL    HW164061   0.332   4.506   4.350  0.9039 -0.0658 -0.2278
20689SOL    HW264062   0.361   4.457   4.490 -0.4541 -0.4217 -0.0587
20690SOL     OW64063   0.467   5.874   4.739 -0.0972 -0.1382 -0.2997
20690SOL    HW164064   0.403   5.945   4.745  0.7001  0.5493  0.3907
20690SOL    HW264065   0.524   5.899   4.666  0.7233  0.4207  0.5016
20691SOL     OW64066   0.341   5.004   7.117  0.3077 -0.2720 -0.5111
20691SOL    HW164067   0.356   5.067   7.046 -0.8638 -0.3402 -0.8425
20691SOL    HW264068   0.246   4.990   7.117  0.6003 -2.6826 -0.9837
20692SOL     OW64069   7.128   8.819   5.510  0.3629  0.4074  0.2857
20692SOL    HW164070   7.109   8.728   5.534  0.9602  0.1484 -0.2026
20692SOL    HW264071   7.120   8.868   5.593  0.7445 -0.1990  0.6874
20693SOL     OW64072   1.260   3.608   1.132  0.3130  0.2495 -0.5397
20693SOL    HW164073   1.313   3.660   1.072 -1.1691  0.6572 -1.5575
20693SOL    HW264074   1.314   3.531   1.153  2.5976  2.1545  1.0808
20694SOL     OW64075   4.017   1.542   2.187  0.4773  0.1314  0.3837
20694SOL    HW164076   4.023   1.560   2.280  1.4880  2.9902 -0.1174
20694SOL    HW264077   4.106   1.517   2.161 -0.1155 -2.1289  0.3903
20695SOL     OW64078   7.550   0.176   3.746 -0.0607  0.3851 -0.4862
20695SOL    HW164079   7.516   0.209   3.829  1.3631 -0.0660  0.3223
20695SOL    HW264080   7.563   0.083   3.760  0.4133  0.3420 -1.1393
20696SOL     OW64081   8.266   6.714   7.353  0.3440  0.1208  0.7683
20696SOL    HW164082   8.268   6.685   7.261  0.6496 -1.6317  1.2869
20696SOL    HW264083   8.262   6.809   7.348 -1.9710  0.0192 -1.0926
20697SOL     OW64084   4.341   5.558   5.954  0.1229 -0.7467  0.2945
20697SOL    HW164085   4.359   5.584   5.863  0.2477 -0.8855  0.2787
20697SOL    HW264086   4.336   5.641   6.002 -1.1879 -0.5945 -0.0588
20698SOL     OW64087   2.758   7.058   8.451  0.2467  0.6220 -0.5791
20698SOL    HW164088   2.685   7.034   8.393 -0.5298  2.9231 -0.6523
20698SOL    HW264089   2.730   7.027   8.538 -0.3808  0.6196 -0.7744
20699SOL     OW64090   7.125   6.104   0.350  0.3694  0.2855 -0.5239
20699SOL    HW164091   7.076   6.045   0.292  0.9710 -0.2554 -0.4942
20699SOL    HW264092   7.120   6.063   0.436  0.5243  0.4387 -0.4405
20700SOL     OW64093   8.246   3.460   7.813  0.6904 -0.5997  0.7157
20700SOL    HW164094   8.253   3.368   7.787  0.2409 -1.0133  1.9865
20700SOL    HW264095   8.259   3.508   7.732 -1.2953 -1.8512 -0.4599
20701SOL     OW64096   6.628   0.301   5.217  0.2018  0.1154  0.1290
20701SOL    HW164097   6.630   0.213   5.181 -0.2726 -0.0499  0.4935
20701SOL    HW264098   6.577   0.352   5.155  0.5980  0.1747 -0.1556
20702SOL     OW64099   7.985   6.363   4.230  0.2530  0.0215  0.4067
20702SOL    HW164100   7.964   6.281   4.184  1.0497  0.0958 -0.1123
20702SOL    HW264101   8.072   6.386   4.198 -0.1537  1.3209  0.2097
20703SOL     OW64102   4.797   6.463   1.349  0.2110  0.1809  0.7778
20703SOL    HW164103   4.720   6.502   1.391 -1.0787 -2.0162  0.6454
20703SOL    HW264104   4.871   6.491   1.403 -1.0181  0.0111  2.6571
20704SOL     OW64105   0.104   6.671   8.514  0.2710 -0.6991  0.6003
20704SOL    HW164106   0.141   6.737   8.572 -1.6434  0.9293  0.0843
20704SOL    HW264107   0.171   6.603   8.509  2.7824  1.6308  0.4027
20705SOL     OW64108   5.814   1.664   3.721 -0.8743 -0.1628 -0.2490
20705SOL    HW164109   5.894   1.611   3.725  0.2580  1.5286  2.5561
20705SOL    HW264110   5.773   1.639   3.638  2.3495 -1.4030 -1.6510
20706SOL     OW64111   5.039   5.947   0.873 -0.9795 -0.0769  0.3089
20706SOL    HW164112   4.996   5.977   0.792  1.1995 -1.1692 -1.3564
20706SOL    HW264113   5.094   6.020   0.899 -2.5722  0.7408  1.5828
20707SOL     OW64114   7.287   0.143   2.591  0.6386  0.4593  0.5792
20707SOL    HW164115   7.234   0.121   2.668 -0.0041  0.5532  0.1665
20707SOL    HW264116   7.274   0.237   2.579 -1.2238  0.0607 -1.0738
20708SOL     OW64117   7.109   8.528   5.079  0.2223 -0.4179 -0.2403
20708SOL    HW164118   7.147   8.595   5.022 -1.9018 -0.4911 -1.8605
20708SOL    HW264119   7.105   8.450   5.024 -1.8669 -0.4958 -0.0420
20709SOL     OW64120   8.086   8.517   6.626  0.5167 -0.2214  0.3874
20709SOL    HW164121   8.112   8.523   6.718 -0.4510 -1.1332  0.7370
20709SOL    HW264122   8.116   8.431   6.597 -1.2528 -0.9435  0.5599
20710SOL     OW64123   7.047   8.364   6.129 -0.1959  0.0947  0.9038
20710SOL    HW164124   7.070   8.380   6.220 -1.2143  1.2368  0.9873
20710SOL    HW264125   7.105   8.422   6.079  3.0886 -3.1882  0.4570
20711SOL     OW64126   6.327   4.680   7.696  0.2538  0.0556 -0.7214
20711SOL    HW164127   6.303   4.690   7.788  0.3606  1.2828 -0.8176
20711SOL    HW264128   6.422   4.689   7.694  0.2491  0.0629 -0.9650
20712SOL     OW64129   1.360   2.070   0.956 -0.1506 -0.2785 -0.1090
20712SOL    HW164130   1.365   1.977   0.937  0.0855 -0.6352  1.5479
20712SOL    HW264131   1.393   2.079   1.046 -0.7831  1.3021  0.0142
20713SOL     OW64132   2.843   0.145   3.483 -0.1943 -0.0754  0.2018
20713SOL    HW164133   2.766   0.198   3.506 -0.3859 -0.0019 -0.5573
20713SOL    HW264134   2.869   0.179   3.397  0.9297  0.1659  0.6289
20714SOL     OW64135   7.273   8.550   4.588  0.4569 -0.0581  0.4934
20714SOL    HW164136   7.253   8.566   4.496  1.1528  2.4024  0.7114
20714SOL    HW264137   7.199   8.498   4.621  1.0316 -2.5778 -1.8060
20715SOL     OW64138   4.867   0.398   2.125  0.3392 -1.0801  0.4301
20715SOL    HW164139   4.883   0.449   2.045 -2.0493  1.9103  1.6653
20715SOL    HW264140   4.783   0.355   2.110 -1.2624  1.2726  1.9714
20716SOL     OW64141   4.054   6.830   6.927  0.2942  0.0097  0.0304
20716SOL    HW164142   4.004   6.756   6.892  0.8214  0.1020 -0.9578
20716SOL    HW264143   4.050   6.819   7.022 -1.1880 -0.2535 -0.0390
20717SOL     OW64144   0.379   8.062   2.542  0.2394 -0.5749  0.0555
20717SOL    HW164145   0.339   8.148   2.556  0.0691 -0.5139 -0.7747
20717SOL    HW264146   0.467   8.070   2.578  0.5788  0.2711 -0.9100
20718SOL     OW64147   1.066   2.293   2.102  0.1014  0.0035  0.4669
20718SOL    HW164148   1.154   2.297   2.140 -0.6348 -1.4147  2.5230
20718SOL    HW264149   1.017   2.361   2.147 -0.1842 -0.0823  0.2900
20719SOL     OW64150   8.606   7.660   2.851  0.5895  0.1219 -0.0234
20719SOL    HW164151   8.696   7.688   2.840  0.8301 -0.4061  0.5086
20719SOL    HW264152   8.607   7.606   2.930 -0.6798  2.2411  1.5680
20720SOL     OW64153   4.559   2.609   1.771  0.2574  0.2425  0.0943
20720SOL    HW164154   4.617   2.598   1.846 -0.3816 -1.3191  0.3891
20720SOL    HW264155   4.506   2.686   1.793  1.2099  0.8003  0.4756
20721SOL     OW64156   5.579   4.474   2.772 -0.3330  0.1467 -0.7787
20721SOL    HW164157   5.639   4.547   2.756  0.8348 -0.2532  1.4424
20721SOL    HW264158   5.493   4.515   2.781  0.2778  1.2540  0.2364
20722SOL     OW64159   6.365   5.368   1.714 -0.2170 -0.0534 -0.1960
20722SOL    HW164160   6.285   5.419   1.705 -0.1168  0.0364 -0.5763
20722SOL    HW264161   6.436   5.431   1.702 -0.0924 -0.2303 -0.3964
20723SOL     OW64162   2.642   4.715   3.839  0.0566  0.1028  0.1417
20723SOL    HW164163   2.736   4.709   3.853 -0.2572 -0.5973  2.2601
20723SOL    HW264164   2.631   4.702   3.744  2.1101  1.0449 -0.2778
20724SOL     OW64165   2.728   6.437   6.793 -0.1652  0.7745 -0.3264
20724SOL    HW164166   2.675   6.453   6.715  1.1390 -0.4996 -1.5188
20724SOL    HW264167   2.704   6.348   6.820  0.2777  0.7502 -0.0017
20725SOL     OW64168   5.656   6.716   7.147  0.3958 -0.3926 -0.4555
20725SOL    HW164169   5.660   6.725   7.242  2.8270  1.1174 -0.6075
20725SOL    HW264170   5.745   6.692   7.121 -0.0225 -0.0297 -2.4049
20726SOL     OW64171   5.754   0.922   2.371 -0.6473 -0.2635  0.0623
20726SOL    HW164172   5.765   0.905   2.277  1.3484  1.4354 -0.0912
20726SOL    HW264173   5.660   0.912   2.386 -1.2819  0.8781 -2.4464
20727SOL     OW64174   7.236   2.020   0.017  0.0859 -0.1091 -0.3659
20727SOL    HW164175   7.279   2.096  -0.024 -0.6384  1.7092  2.0274
20727SOL    HW264176   7.307   1.960   0.035  1.1806  1.3556  0.4304
20728SOL     OW64177   1.786   5.754   8.401  0.0908 -0.0792 -0.1657
20728SOL    HW164178   1.706   5.788   8.360 -0.9895  0.3112  2.1352
20728SOL    HW264179   1.821   5.828   8.451  1.8167 -0.3138 -0.9349
20729SOL     OW64180   8.787   6.202   1.348 -0.2486  0.2210 -0.5481
20729SOL    HW164181   8.844   6.277   1.365 -0.8311  0.4652  0.4023
20729SOL    HW264182   8.758   6.214   1.257  1.0234  0.2068 -0.9709
20730SOL     OW64183   6.262   6.774   1.229  0.4362 -0.0222 -0.2531
20730SOL    HW164184   6.236   6.866   1.243  0.6895  0.0602 -0.3225
20730SOL    HW264185   6.215   6.748   1.150 -0.0107 -0.1001  0.0340
20731SOL     OW64186   1.284   1.328   8.454 -0.0876  0.1158 -0.4970
20731SOL    HW164187   1.226   1.364   8.522  1.1880  0.3984  0.4758
20731SOL    HW264188   1.265   1.380   8.376  0.3624  1.6649  0.3807
20732SOL     OW64189   7.898   7.564   4.174  0.5402 -0.3633 -0.6249
20732SOL    HW164190   7.910   7.623   4.249  1.8329 -1.4959  0.0866
20732SOL    HW264191   7.916   7.619   4.098 -1.9693  1.1398 -0.2558
20733SOL     OW64192   1.145   1.785   3.418  0.2001 -0.2851 -0.2894
20733SOL    HW164193   1.230   1.812   3.452  0.3252 -0.4197 -0.4876
20733SOL    HW264194   1.082   1.838   3.466  0.4807  0.9593 -1.2321
20734SOL     OW64195   5.832   5.512   6.728 -0.8470  0.7115  0.3631
20734SOL    HW164196   5.765   5.552   6.783 -0.1566 -0.1084  1.8641
20734SOL    HW264197   5.832   5.419   6.752  1.9492  0.9474  1.7120
20735SOL     OW64198   7.008   7.775   8.459  0.2086  0.0877 -0.3115
20735SOL    HW164199   6.936   7.732   8.413  0.8000 -0.9406 -0.3108
20735SOL    HW264200   7.009   7.735   8.546  0.0161  0.9694  0.0978
20736SOL     OW64201   4.280   4.953   7.753  0.2672 -0.0451 -0.1509
20736SOL    HW164202   4.236   5.030   7.717  0.8899  0.5956  0.4361
20736SOL    HW264203   4.373   4.975   7.750  0.4394 -0.7064  0.1775
20737SOL     OW64204   2.864   4.684   6.001 -0.3317  0.1543 -0.1348
20737SOL    HW164205   2.943   4.658   6.049 -1.5421  0.8841  2.3979
20737SOL    HW264206   2.792   4.660   6.059 -1.7963  3.1072 -0.5529
20738SOL     OW64207   3.055   8.376   4.052  0.0491  0.2223 -0.8804
20738SOL    HW164208   2.984   8.376   4.117 -0.0333  1.3735 -0.9579
20738SOL    HW264209   3.119   8.314   4.087 -1.2527 -1.3130 -1.1008
20739SOL     OW64210   6.099   0.078   8.485  0.6588 -0.1835 -1.1483
20739SOL    HW164211   6.190   0.106   8.479  0.7831 -0.5072 -0.8216
20739SOL    HW264212   6.061   0.134   8.553  0.6828 -0.2263 -1.0996
20740SOL     OW64213   4.821   2.747   5.218  0.1350  0.2901 -0.4522
20740SOL    HW164214   4.742   2.763   5.269  0.5242  1.1785 -0.1028
20740SOL    HW264215   4.810   2.659   5.182 -0.3262 -0.1970  0.8410
20741SOL     OW64216   5.035   4.705   2.156  0.3622 -0.3608  0.0854
20741SOL    HW164217   5.057   4.667   2.071  1.1817  0.2800  0.0022
20741SOL    HW264218   4.993   4.633   2.203  0.0713 -0.7796 -0.7879
20742SOL     OW64219   7.004   1.351   0.927 -0.5305 -0.1801 -0.5218
20742SOL    HW164220   6.935   1.297   0.967  0.4235 -0.8209  0.3084
20742SOL    HW264221   7.066   1.288   0.891 -1.2101  0.3915 -2.8152
20743SOL     OW64222   7.378   4.806   8.363 -0.3386 -0.4117 -0.0892
20743SOL    HW164223   7.434   4.787   8.288 -0.0340 -0.1528  0.0687
20743SOL    HW264224   7.408   4.747   8.432 -0.6263 -0.6587 -0.1758
20744SOL     OW64225   0.139   4.404   0.598 -0.3634  0.1781  0.0877
20744SOL    HW164226   0.126   4.499   0.603 -0.2731  0.2028 -0.1318
20744SOL    HW264227   0.231   4.391   0.619 -0.8377 -0.0541  2.2865
20745SOL     OW64228   0.782   0.856   7.831  0.0855 -0.1112 -0.2056
20745SOL    HW164229   0.756   0.804   7.907 -1.8058  0.3842 -0.4847
20745SOL    HW264230   0.869   0.890   7.855  0.4726 -1.6808  0.8224
20746SOL     OW64231   0.685   0.252   1.302  0.0989 -0.1810  0.0199
20746SOL    HW164232   0.687   0.300   1.385  0.6961  0.5628 -0.4142
20746SOL    HW264233   0.594   0.257   1.274  0.0478  0.2252  0.2478
20747SOL     OW64234   0.113   7.059   1.764  0.7232 -0.2004 -0.5961
20747SOL    HW164235   0.078   7.099   1.843 -1.5848 -0.4107 -1.4564
20747SOL    HW264236   0.185   7.118   1.738  0.4006  0.8104  0.6786
20748SOL     OW64237   5.669   3.849   5.890 -0.0759 -0.1395  0.1073
20748SOL    HW164238   5.625   3.766   5.873 -0.6190 -0.1320  1.3561
20748SOL    HW264239   5.698   3.843   5.981 -0.0753  1.0121  0.2011
20749SOL     OW64240   8.336   0.319   1.586  0.4167  0.2705  0.1005
20749SOL    HW164241   8.356   0.243   1.641  1.7581  0.6262  0.1506
20749SOL    HW264242   8.418   0.369   1.585 -0.2935  1.4510 -0.3444
20750SOL     OW64243   1.612   3.812   8.281  0.1789  0.6659  0.0500
20750SOL    HW164244   1.539   3.874   8.280  0.1165  0.5929  0.0185
20750SOL    HW264245   1.570   3.726   8.274  0.3833  0.7046 -2.1780
20751SOL     OW64246   7.952   5.426   0.793  0.4903 -0.2560  0.1107
20751SOL    HW164247   7.993   5.496   0.743  0.6234  0.6331  1.3970
20751SOL    HW264248   8.026   5.380   0.834  0.3732 -0.7979 -0.2841
20752SOL     OW64249   6.093   1.308   4.761 -0.0371  0.4718 -0.5950
20752SOL    HW164250   6.128   1.320   4.849 -0.7432 -1.2734 -0.0360
20752SOL    HW264251   6.158   1.255   4.716  0.6624  1.9454 -1.3985
20753SOL     OW64252   7.348   2.593   8.214  0.5920  0.3488  0.0818
20753SOL    HW164253   7.432   2.638   8.212  0.1650  1.1437 -0.5850
20753SOL    HW264254   7.291   2.645   8.158 -0.3533 -0.1680  0.5289
20754SOL     OW64255   3.485   8.826   5.243 -0.0062  0.1732  0.4377
20754SOL    HW164256   3.482   8.786   5.156  2.9534 -1.5631  0.9688
20754SOL    HW264257   3.432   8.768   5.298  0.9263 -0.7434  0.4024
20755SOL     OW64258   4.399   3.186   1.879  0.1700 -0.3492 -0.0357
20755SOL    HW164259   4.378   3.120   1.945 -2.0542  0.1135 -0.2119
20755SOL    HW264260   4.440   3.257   1.929 -0.1441 -0.6203  0.6242
20756SOL     OW64261   3.238   5.498   0.598  0.5880 -0.1290 -0.1124
20756SOL    HW164262   3.244   5.438   0.672  1.2602 -1.7519 -1.4095
20756SOL    HW264263   3.162   5.553   0.617  1.9768  1.0123  2.7953
20757SOL     OW64264   3.382   6.628   5.434  0.0728 -0.1068 -0.0968
20757SOL    HW164265   3.459   6.676   5.404  0.6870 -1.2080 -0.3523
20757SOL    HW264266   3.367   6.562   5.366 -1.4824  0.4801 -0.3608
20758SOL     OW64267   1.128   4.418   3.879 -0.6913  0.4750  0.0789
20758SOL    HW164268   1.100   4.345   3.824 -0.7598  0.6155 -0.0738
20758SOL    HW264269   1.095   4.496   3.834 -0.4208  0.6135  0.1187
20759SOL     OW64270   3.072   5.242   7.747  0.0124 -0.2334 -0.5417
20759SOL    HW164271   3.095   5.149   7.743  1.7225  0.0620  1.0313
20759SOL    HW264272   2.976   5.243   7.749 -0.0381 -1.9477 -0.6786
20760SOL     OW64273   6.539   3.502   1.579  0.2075 -0.2404  0.5488
20760SOL    HW164274   6.450   3.468   1.568 -0.0628  0.2772  1.0869
20760SOL    HW264275   6.548   3.568   1.509 -0.8753  1.7656  2.1785
20761SOL     OW64276   7.800   6.018   5.146  0.1413  0.0130  0.6038
20761SOL    HW164277   7.883   6.003   5.101 -0.2291 -0.7924  0.1578
20761SOL    HW264278   7.775   5.932   5.179 -1.2084 -0.0490 -0.4977
20762SOL     OW64279   8.284   1.159   4.249 -0.3140  0.3093  0.0647
20762SOL    HW164280   8.338   1.101   4.303  0.6690 -0.2805 -1.4782
20762SOL    HW264281   8.237   1.213   4.312  1.3219  0.1576  1.5062
20763SOL     OW64282   5.444   5.090   4.167 -0.0520 -0.1328  0.1806
20763SOL    HW164283   5.466   5.178   4.198  0.2441 -0.0545 -0.2543
20763SOL    HW264284   5.528   5.047   4.153 -0.1872 -0.2911 -0.1634
20764SOL     OW64285   4.114   5.025   4.237 -0.1229  0.6521 -0.6784
20764SOL    HW164286   4.208   5.022   4.252 -0.1133 -0.4688 -0.8596
20764SOL    HW264287   4.080   4.944   4.277 -1.1547  1.5130  0.2830
20765SOL     OW64288   1.213   3.005   3.929  0.1525  0.2813  0.4806
20765SOL    HW164289   1.133   3.036   3.971 -0.0805 -1.7028  1.6093
20765SOL    HW264290   1.202   3.028   3.837 -1.3793  0.7344  0.7541
20766SOL     OW64291   2.166   0.940   1.149  0.0078  0.1178 -0.1633
20766SOL    HW164292   2.121   0.939   1.064  0.1749  0.3391 -0.2557
20766SOL    HW264293   2.130   0.865   1.196 -0.4199  0.2687 -0.2537
20767SOL     OW64294   0.183   1.895   0.856  0.1672 -0.0529 -0.1105
20767SOL    HW164295   0.155   1.822   0.800  1.8955 -1.7804  1.1133
20767SOL    HW264296   0.111   1.907   0.918  0.0042 -1.0007 -0.1015
20768SOL     OW64297   4.192   2.085   6.017  0.2639 -0.1248 -0.2358
20768SOL    HW164298   4.202   2.078   6.112  0.2513  0.9533 -0.1379
20768SOL    HW264299   4.275   2.123   5.987  0.1168 -0.0891 -0.6031
20769SOL     OW64300   8.606   6.623   8.857  0.2123 -0.3518 -0.3969
20769SOL    HW164301   8.669   6.660   8.919 -0.0466  1.9961 -1.4242
20769SOL    HW264302   8.576   6.542   8.899  1.1436  0.3728  1.8262
20770SOL     OW64303   3.017   0.791   7.009  0.0153 -0.3426  0.0405
20770SOL    HW164304   3.102   0.754   7.032  0.1093 -0.1055  0.0759
20770SOL    HW264305   3.007   0.771   6.916  0.3368  0.0712 -0.0850
20771SOL     OW64306   3.581   1.603   0.317  0.3360  0.1107  0.4225
20771SOL    HW164307   3.556   1.670   0.380  0.8792  0.3388  0.4063
20771SOL    HW264308   3.667   1.631   0.286 -0.7247  1.0716 -1.8899
20772SOL     OW64309   2.304   8.044   0.716  0.4677 -0.3927  0.3380
20772SOL    HW164310   2.363   8.094   0.660  0.5396 -0.4351  0.3762
20772SOL    HW264311   2.249   8.111   0.758  0.9597 -0.3023  0.8429
20773SOL     OW64312   6.811   7.329   4.083  0.2465  0.2298 -0.2294
20773SOL    HW164313   6.786   7.303   3.995  1.5199 -1.2295 -0.2113
20773SOL    HW264314   6.818   7.246   4.132  2.7502  0.6705  0.3257
20774SOL     OW64315   6.110   4.727   7.218 -0.0340 -0.0886  0.2116
20774SOL    HW164316   6.190   4.703   7.265 -0.2107  0.4107  0.7798
20774SOL    HW264317   6.110   4.823   7.218 -0.6725 -0.0844  0.2777
20775SOL     OW64318   4.835   4.117   2.260  0.7426  0.2234  0.0485
20775SOL    HW164319   4.817   4.175   2.334  0.9919 -0.4284  0.6303
20775SOL    HW264320   4.774   4.146   2.192  0.1006  0.4555  0.7071
20776SOL     OW64321   6.251   5.238   4.144 -0.4495  0.8199 -0.1519
20776SOL    HW164322   6.254   5.329   4.116 -0.0751  0.0795 -2.8660
20776SOL    HW264323   6.158   5.216   4.147 -0.5584  0.2726 -3.6361
20777SOL     OW64324   0.927   1.422   1.807 -0.1974 -0.0267  0.0568
20777SOL    HW164325   0.887   1.377   1.732  0.3535  0.7206 -0.7083
20777SOL    HW264326   1.004   1.369   1.828 -0.1354 -0.0243 -0.1602
20778SOL     OW64327   8.428   1.138   4.853  0.6845  0.5408 -0.1336
20778SOL    HW164328   8.425   1.234   4.859  1.5798  0.5549  0.2182
20778SOL    HW264329   8.358   1.116   4.791  0.8877  1.4693 -0.7116
20779SOL     OW64330   7.869   0.849   0.584  0.2007  0.3086 -0.1421
20779SOL    HW164331   7.797   0.861   0.522  0.4798 -0.8378 -0.7189
20779SOL    HW264332   7.867   0.755   0.605  0.5329  0.5521  1.0770
20780SOL     OW64333   0.625   2.243   1.831 -0.3131 -0.1136  0.6167
20780SOL    HW164334   0.542   2.232   1.785  0.3143 -0.2428 -0.5281
20780SOL    HW264335   0.622   2.332   1.866  0.1987  0.9416 -1.8311
20781SOL     OW64336   4.174   0.154   7.308  0.1810  0.3887  0.4339
20781SOL    HW164337   4.187   0.182   7.217 -2.2036  1.2562  0.2795
20781SOL    HW264338   4.245   0.197   7.356  0.0231  2.0221 -0.6841
20782SOL     OW64339   6.198   7.919   1.062  0.9989 -0.3108 -0.0123
20782SOL    HW164340   6.222   8.011   1.066 -1.7372  0.5055 -0.4357
20782SOL    HW264341   6.144   7.905   1.140  1.3267 -1.5675  0.0159
20783SOL     OW64342   6.949   2.632   2.770 -0.3579  0.8347  0.3043
20783SOL    HW164343   6.871   2.578   2.784  1.1944 -1.9296 -0.9136
20783SOL    HW264344   7.001   2.620   2.850 -0.7429  2.0207  0.7657
20784SOL     OW64345   0.729   5.514   3.104  0.1746 -0.1758 -0.2281
20784SOL    HW164346   0.661   5.450   3.125  0.9074 -0.8726  0.0881
20784SOL    HW264347   0.772   5.532   3.188  0.1626  0.5160 -0.3638
20785SOL     OW64348   3.865   5.367   8.762  0.3805 -0.1566  0.1937
20785SOL    HW164349   3.901   5.409   8.684 -0.0809 -0.3184 -0.1108
20785SOL    HW264350   3.810   5.296   8.728  0.3882 -0.3954  0.6733
20786SOL     OW64351   2.987   1.502   5.530 -0.1793 -0.3118  0.2762
20786SOL    HW164352   2.902   1.538   5.554  0.3935  1.8193 -0.6872
20786SOL    HW264353   3.020   1.560   5.462  1.6398 -1.6467 -0.0708
20787SOL     OW64354   3.701   0.213   3.240 -0.0133  0.2784  0.0997
20787SOL    HW164355   3.793   0.226   3.219 -0.2219 -0.1055 -1.1095
20787SOL    HW264356   3.664   0.301   3.241 -0.8765  0.3003 -5.4931
20788SOL     OW64357   3.988   2.273   6.613  0.1155 -1.0137  0.3770
20788SOL    HW164358   4.033   2.218   6.549  0.8657  0.2897 -0.2616
20788SOL    HW264359   3.895   2.264   6.592  0.3624 -0.5043 -1.0044
20789SOL     OW64360   6.963   8.686   2.755 -0.2340  0.2274  0.1068
20789SOL    HW164361   7.049   8.686   2.714 -0.5104 -1.9628 -0.6119
20789SOL    HW264362   6.927   8.772   2.736  0.8310  0.3306 -1.7011
20790SOL     OW64363   2.733   1.122   1.051 -0.0776  0.1459  0.3151
20790SOL    HW164364   2.771   1.154   1.133  1.2466  2.1511 -1.0151
20790SOL    HW264365   2.641   1.103   1.073 -0.0069  1.5442  2.0412
20791SOL     OW64366   6.959   7.270   1.571 -0.3411 -0.4364  0.5776
20791SOL    HW164367   6.971   7.247   1.663  1.6209 -0.6882  0.2958
20791SOL    HW264368   6.870   7.306   1.566 -0.0673  0.6978  2.7952
20792SOL     OW64369   5.666   8.809   4.337  0.7550 -0.2355  0.3622
20792SOL    HW164370   5.579   8.782   4.307  1.7175 -1.8911 -1.1653
20792SOL    HW264371   5.684   8.889   4.289 -0.0478  0.3235  0.9650
20793SOL     OW64372   4.823   6.016   7.764  0.2360  0.0582 -0.2548
20793SOL    HW164373   4.818   6.062   7.680 -2.2647 -2.9458 -1.9635
20793SOL    HW264374   4.742   5.965   7.769  1.5030 -1.9795  2.7455
20794SOL     OW64375   7.634   6.739   0.086 -0.0027 -0.4244 -0.4283
20794SOL    HW164376   7.618   6.833   0.093 -1.1455 -0.5896 -0.6558
20794SOL    HW264377   7.729   6.730   0.096  0.0897  0.7234 -0.1542
20795SOL     OW64378   8.492   4.168   4.274 -0.2559  0.0803  0.1577
20795SOL    HW164379   8.502   4.110   4.350 -0.5859 -1.6279 -1.0314
20795SOL    HW264380   8.557   4.137   4.211 -1.6229 -0.1909 -1.1927
20796SOL     OW64381   7.154   1.777   3.933 -0.6803 -0.6727 -0.2395
20796SOL    HW164382   7.227   1.715   3.934  0.0400  0.1216 -0.9146
20796SOL    HW264383   7.195   1.861   3.908 -1.3760  0.3735  1.9227
20797SOL     OW64384   3.707   4.604   5.610  0.0424  0.4189  0.4427
20797SOL    HW164385   3.695   4.562   5.526 -2.2210  2.2437 -0.2507
20797SOL    HW264386   3.631   4.578   5.662 -1.0317  2.8538  0.2518
20798SOL     OW64387   4.657   4.214   5.965 -0.0807  0.3605  0.1012
20798SOL    HW164388   4.682   4.136   6.015  2.6822  0.5193 -0.8522
20798SOL    HW264389   4.710   4.284   6.002  1.3432  0.6622 -2.3074
20799SOL     OW64390   8.085   4.842   8.342  0.8467 -0.7492  0.0022
20799SOL    HW164391   8.087   4.830   8.437  1.7018  1.3064  0.2934
20799SOL    HW264392   8.064   4.934   8.330 -2.0266 -1.5205 -1.9230
20800SOL     OW64393   4.567   6.353   8.567  0.0494  0.1700  0.2702
20800SOL    HW164394   4.567   6.375   8.474  1.5001  0.1527  0.2471
20800SOL    HW264395   4.646   6.394   8.601 -0.4779  0.2030  1.5165
20801SOL     OW64396   4.969   7.625   7.574 -0.2661  0.2353  0.3342
20801SOL    HW164397   5.026   7.548   7.580 -1.3267 -0.6593 -0.6016
20801SOL    HW264398   4.884   7.590   7.547 -1.1176  1.6039  1.1302
20802SOL     OW64399   4.665   4.411   8.411 -0.2310  0.3928 -0.5684
20802SOL    HW164400   4.660   4.505   8.394 -1.8612 -0.1161 -3.3695
20802SOL    HW264401   4.575   4.380   8.402  0.5503 -1.7241 -1.7468
20803SOL     OW64402   2.253   4.149   3.072  0.1118 -0.4816  0.1844
20803SOL    HW164403   2.216   4.129   3.158  1.0723 -0.6681  0.5677
20803SOL    HW264404   2.201   4.097   3.011  1.3031 -2.6855  0.9598
20804SOL     OW64405   8.797   1.811   5.611 -0.1650  0.0453 -0.4212
20804SOL    HW164406   8.869   1.751   5.630  0.7419  0.5143 -2.1744
20804SOL    HW264407   8.727   1.784   5.671  0.5679 -2.0690 -0.4227
20805SOL     OW64408   3.426   2.941   5.853 -0.5165  0.1937 -0.0560
20805SOL    HW164409   3.478   2.860   5.851 -1.3759 -0.4084 -2.5106
20805SOL    HW264410   3.436   2.974   5.942  1.5891 -1.4847  0.4276
20806SOL     OW64411   3.838   2.551   3.305 -0.2618  0.3078 -0.0638
20806SOL    HW164412   3.902   2.612   3.268  1.3267 -1.7758 -0.9780
20806SOL    HW264413   3.879   2.522   3.387 -0.6980 -0.0039  0.0430
20807SOL     OW64414   1.411   8.855   2.551 -0.5544  0.3651 -0.4427
20807SOL    HW164415   1.394   8.803   2.472 -1.0735  0.0437 -0.1277
20807SOL    HW264416   1.496   8.824   2.582 -0.4671  0.3119 -0.7280
20808SOL     OW64417   4.831   3.357   2.509 -0.7138 -0.0692  0.3052
20808SOL    HW164418   4.907   3.353   2.567 -1.0165  1.0105  0.7961
20808SOL    HW264419   4.850   3.292   2.440  0.8870  0.5369  0.1339
20809SOL     OW64420   6.207   7.636   3.769 -0.4054  0.2291  0.1004
20809SOL    HW164421   6.287   7.658   3.721  0.5655 -1.5907  0.7941
20809SOL    HW264422   6.174   7.721   3.800  0.4537  1.1554 -1.3899
20810SOL     OW64423   6.419   3.556   2.835 -0.2167 -0.3935 -0.7154
20810SOL    HW164424   6.361   3.522   2.767  1.1257 -1.0673 -1.5752
20810SOL    HW264425   6.429   3.649   2.813 -2.1155  0.1142  0.3311
20811SOL     OW64426   3.756   4.268   4.855 -0.2993 -0.4752 -0.4628
20811SOL    HW164427   3.749   4.362   4.867 -0.5884 -0.6496  0.8254
20811SOL    HW264428   3.816   4.239   4.924 -2.1082 -1.5380  0.7641
20812SOL     OW64429   6.064   2.875   4.096  1.3130 -0.0870  0.1405
20812SOL    HW164430   6.120   2.950   4.076  3.0638 -1.4029 -0.1438
20812SOL    HW264431   6.090   2.809   4.032 -0.3809 -0.8545  0.2099
20813SOL     OW64432   3.918   7.417   2.389  0.2261  0.3089  0.1427
20813SOL    HW164433   4.012   7.402   2.382  0.0331 -0.7646 -0.3177
20813SOL    HW264434   3.910   7.496   2.443  1.4564  2.1317 -2.1750
20814SOL     OW64435   3.421   6.979   5.116  0.0747 -0.0383  0.0525
20814SOL    HW164436   3.366   6.969   5.039 -0.7477  1.7060  0.3576
20814SOL    HW264437   3.381   6.921   5.182  0.3072 -0.9189 -0.5654
20815SOL     OW64438   7.786   1.499   5.759 -0.5083 -0.1027  0.4496
20815SOL    HW164439   7.869   1.538   5.786 -0.4430 -0.0792  0.2167
20815SOL    HW264440   7.785   1.414   5.803  0.0679 -0.5000 -0.2708
20816SOL     OW64441   2.484   4.196   6.097  0.2534  0.2766  0.2687
20816SOL    HW164442   2.524   4.120   6.140 -0.7604 -0.4626 -0.0524
20816SOL    HW264443   2.508   4.187   6.005  1.1518  1.0278  0.4179
20817SOL     OW64444   5.505   3.983   2.949  0.2611 -0.1061 -0.7199
20817SOL    HW164445   5.512   4.078   2.957  2.4658 -0.3341  0.6377
20817SOL    HW264446   5.429   3.970   2.892 -0.0579  2.4510 -0.9960
20818SOL     OW64447   5.382   0.520   8.406  0.4133 -0.4301  0.1607
20818SOL    HW164448   5.341   0.598   8.367 -2.2730 -2.7544 -2.0946
20818SOL    HW264449   5.470   0.519   8.369 -0.6153 -0.1706 -2.5684
20819SOL     OW64450   6.779   3.932   2.985  0.3934  0.2072 -0.5475
20819SOL    HW164451   6.852   3.887   2.944 -0.1616 -0.6890 -0.5860
20819SOL    HW264452   6.811   4.021   3.001  0.8964  0.3554 -2.1745
20820SOL     OW64453   3.430   6.768   7.428 -0.4807 -0.1388  0.0558
20820SOL    HW164454   3.346   6.814   7.430 -0.3743  0.1338 -1.0716
20820SOL    HW264455   3.448   6.755   7.335 -0.8040 -3.0579  0.3235
20821SOL     OW64456   3.978   0.688   7.959 -0.1116  0.2722  0.4234
20821SOL    HW164457   4.072   0.703   7.950  0.3865 -0.6659  3.0167
20821SOL    HW264458   3.938   0.768   7.924  1.6687  1.0296 -0.0462
20822SOL     OW64459   2.771   5.078   2.468 -0.1053 -0.3257 -0.3230
20822SOL    HW164460   2.678   5.077   2.488  0.0351  0.7068  0.4937
20822SOL    HW264461   2.783   5.153   2.411  0.4631  0.6535  1.0129
20823SOL     OW64462   4.841   8.170   4.393  0.1049 -0.3473 -0.0888
20823SOL    HW164463   4.786   8.114   4.338 -1.0310  1.8025 -1.2668
20823SOL    HW264464   4.786   8.189   4.469 -0.1093  0.3794 -0.4208
20824SOL     OW64465   4.006   8.691   0.244 -0.3109 -0.2459  0.0033
20824SOL    HW164466   3.989   8.687   0.149 -0.2256  0.4812 -0.0502
20824SOL    HW264467   4.048   8.607   0.264 -0.5365 -0.5020 -0.5618
20825SOL     OW64468   0.764   1.550   4.335  0.0491  0.6438 -0.1309
20825SOL    HW164469   0.739   1.624   4.280  0.7984  1.0172  0.0260
20825SOL    HW264470   0.804   1.589   4.412  1.8048  0.0666 -0.6912
20826SOL     OW64471   8.104   7.945   1.258 -0.1960 -0.1744  0.4239
20826SOL    HW164472   8.063   7.978   1.178  1.6198  0.6454 -0.2097
20826SOL    HW264473   8.088   8.013   1.324  1.0431  0.6491 -0.1085
20827SOL     OW64474   6.057   0.676   2.257  0.8901 -0.2226 -0.6346
20827SOL    HW164475   6.037   0.617   2.185 -0.8552 -0.3520 -0.0959
20827SOL    HW264476   5.996   0.649   2.327 -0.0556  2.2648 -0.4196
20828SOL     OW64477   4.870   6.922   5.022  0.7423 -0.4152 -0.3331
20828SOL    HW164478   4.902   6.849   4.968  1.6720 -0.8556  0.7643
20828SOL    HW264479   4.949   6.954   5.067 -0.1754 -0.9483  1.7889
20829SOL     OW64480   8.468   3.975   6.011 -0.6182 -0.2292  0.4880
20829SOL    HW164481   8.538   4.032   6.043 -0.2044  0.2747 -1.2382
20829SOL    HW264482   8.465   3.903   6.074 -0.0669  0.8686  1.8161
20830SOL     OW64483   5.932   3.513   5.443 -0.4238 -0.2734 -0.3376
20830SOL    HW164484   5.945   3.558   5.527 -0.7644 -3.0236  1.3244
20830SOL    HW264485   5.840   3.527   5.423 -0.6616 -0.6318  0.4485
20831SOL     OW64486   7.499   3.661   2.522  0.6754 -0.1660 -0.1785
20831SOL    HW164487   7.450   3.599   2.469  1.2554 -0.2376 -0.6498
20831SOL    HW264488   7.465   3.650   2.610 -1.8235  1.4454 -0.8443
20832SOL     OW64489   4.295   3.153   6.716  0.4591 -0.0304 -0.1877
20832SOL    HW164490   4.209   3.159   6.674  1.0142  0.4515 -1.2982
20832SOL    HW264491   4.286   3.083   6.780 -1.3046  1.2328  1.0369
20833SOL     OW64492   0.184   4.370   6.685  0.2468 -0.7134 -0.6111
20833SOL    HW164493   0.125   4.306   6.644 -1.4461  0.3201  0.1255
20833SOL    HW264494   0.206   4.431   6.614  0.9162 -1.4117 -1.0246
20834SOL     OW64495   1.486   0.370   6.269 -0.6674  0.6548  0.1539
20834SOL    HW164496   1.576   0.374   6.237 -1.0371  1.2696 -0.8554
20834SOL    HW264497   1.433   0.402   6.196 -1.9731 -2.2869 -0.3117
20835SOL     OW64498   3.585   5.113   5.224 -0.4930  0.5948 -0.2917
20835SOL    HW164499   3.502   5.134   5.268 -0.3174 -1.0140  0.9106
20835SOL    HW264500   3.651   5.121   5.293  0.1613  0.5672 -0.9151
20836SOL     OW64501   1.038   0.469   3.010 -0.1932 -0.6933 -0.6283
20836SOL    HW164502   0.965   0.530   3.000 -1.0250 -1.9428 -2.9182
20836SOL    HW264503   0.998   0.389   3.042  0.4432 -0.9337 -0.4157
20837SOL     OW64504   3.194   5.820   3.507 -0.1253 -0.3604 -0.7595
20837SOL    HW164505   3.276   5.862   3.483  0.0274 -0.6532 -0.7589
20837SOL    HW264506   3.148   5.885   3.559 -0.1569  0.0251 -1.2613
20838SOL     OW64507   2.702   3.436   1.628 -1.1368 -0.0285 -0.2144
20838SOL    HW164508   2.686   3.364   1.567 -2.0727 -0.3706  0.4093
20838SOL    HW264509   2.629   3.431   1.691 -0.2635  0.3843  0.8595
20839SOL     OW64510   0.207   0.006   1.055  0.1107 -0.2816  0.5152
20839SOL    HW164511   0.184   0.097   1.037 -1.2057 -0.9506 -1.6137
20839SOL    HW264512   0.302   0.005   1.059  0.1277  1.2539  1.0418
20840SOL     OW64513   1.329   0.804   2.191 -0.0794 -0.3666  0.1849
20840SOL    HW164514   1.338   0.844   2.105 -0.2975 -0.1236  0.2732
20840SOL    HW264515   1.235   0.791   2.202  0.0424 -1.7977 -0.2418
20841SOL     OW64516   6.227   7.929   6.007 -0.1218  0.0849 -0.2577
20841SOL    HW164517   6.229   7.845   6.053 -2.6598 -0.0272 -0.2204
20841SOL    HW264518   6.205   7.907   5.917 -1.2179  0.7057 -0.1621
20842SOL     OW64519   8.368   0.677   6.169 -0.1260 -0.1661 -0.0842
20842SOL    HW164520   8.433   0.659   6.237 -0.2197 -1.3813 -0.3017
20842SOL    HW264521   8.305   0.736   6.212  0.3340 -0.1444  0.5781
20843SOL     OW64522   0.762   1.018   3.225  0.2393 -0.6525 -0.1792
20843SOL    HW164523   0.807   1.072   3.289 -0.2290  0.6537 -0.9194
20843SOL    HW264524   0.832   0.984   3.169  0.5380 -0.8323  0.2961
20844SOL     OW64525   8.324   3.019   4.037 -0.1797  0.2420 -0.1867
20844SOL    HW164526   8.255   3.063   3.988  0.0069 -0.2651 -0.9102
20844SOL    HW264527   8.305   2.926   4.027  1.3663  0.0388 -1.5340
20845SOL     OW64528   1.872   2.362   8.149 -0.2722  0.1741 -0.1296
20845SOL    HW164529   1.894   2.382   8.240 -1.0765  1.1600 -0.1366
20845SOL    HW264530   1.792   2.310   8.154  0.1405 -0.4810 -0.2457
20846SOL     OW64531   2.002   3.161   6.981 -0.1451 -0.7087  0.3726
20846SOL    HW164532   1.982   3.067   6.982  0.1124 -0.7895  2.0736
20846SOL    HW264533   2.008   3.184   7.074  2.4858  0.4343 -0.0086
20847SOL     OW64534   5.964   7.536   0.641 -0.0763  0.3277 -0.2714
20847SOL    HW164535   5.993   7.457   0.686  1.7329  1.5152  0.7822
20847SOL    HW264536   6.016   7.539   0.561  3.1656  2.5356  1.6889
20848SOL     OW64537   0.244   3.886   4.279 -0.2227  0.0673  0.5717
20848SOL    HW164538   0.282   3.933   4.354 -0.1112  1.4506 -0.3152
20848SOL    HW264539   0.216   3.802   4.316  2.2015 -0.3940  1.6249
20849SOL     OW64540   8.635   5.571   1.141 -0.2424 -0.6993 -0.1659
20849SOL    HW164541   8.586   5.502   1.096  0.7797 -0.9620 -0.9193
20849SOL    HW264542   8.726   5.556   1.114 -0.0862  1.3625 -0.9209
20850SOL     OW64543   7.520   2.185   5.866  0.0228 -0.3398  0.5840
20850SOL    HW164544   7.501   2.273   5.898  0.8028 -0.7164  2.2191
20850SOL    HW264545   7.616   2.180   5.868  0.1383 -0.3999 -1.9320
20851SOL     OW64546   3.219   4.137   3.130  0.5757  0.5530 -0.0342
20851SOL    HW164547   3.247   4.177   3.213  1.2188 -0.6288  0.3576
20851SOL    HW264548   3.135   4.179   3.110  0.4242  0.8949  1.2009
20852SOL     OW64549   4.258   3.846   6.911 -0.4112 -0.5191  0.2533
20852SOL    HW164550   4.168   3.877   6.914 -0.9613 -2.0536  0.8481
20852SOL    HW264551   4.289   3.851   7.001 -0.0467 -0.4173  0.1269
20853SOL     OW64552   3.927   2.320   7.710  0.0897 -0.0539 -0.3780
20853SOL    HW164553   3.848   2.268   7.724  0.7670 -0.7839  0.9973
20853SOL    HW264554   3.999   2.260   7.731  0.9207  1.2335  0.6191
20854SOL     OW64555   4.035   4.859   5.379 -0.2904 -0.1801 -0.3239
20854SOL    HW164556   4.066   4.818   5.299  0.1287  0.2562 -0.3878
20854SOL    HW264557   4.092   4.934   5.392 -0.4618 -0.1470  0.2926
20855SOL     OW64558   2.647   5.063   7.744  0.0600 -0.1387  0.0566
20855SOL    HW164559   2.698   5.083   7.823  2.0312  1.7612 -1.5806
20855SOL    HW264560   2.640   4.967   7.744  0.9027 -0.2521  1.9578
20856SOL     OW64561   4.812   2.224   4.251 -0.8658 -0.5390  0.3781
20856SOL    HW164562   4.786   2.234   4.343 -1.8034  0.9536 -0.0143
20856SOL    HW264563   4.802   2.311   4.214 -0.6173 -1.1451 -1.1845
20857SOL     OW64564   3.854   3.971   0.220  0.3220 -0.8246 -0.0119
20857SOL    HW164565   3.833   3.973   0.127  2.3741  0.4278 -0.5184
20857SOL    HW264566   3.858   3.878   0.242 -1.3250 -1.1233 -0.8604
20858SOL     OW64567   4.363   2.659   7.143 -0.2718  0.1831  0.3502
20858SOL    HW164568   4.435   2.715   7.171  2.2519 -1.2722 -2.6048
20858SOL    HW264569   4.328   2.702   7.065 -1.4947  0.0256  0.8029
20859SOL     OW64570   5.186   1.524   3.885  0.0410  0.3137  0.5054
20859SOL    HW164571   5.136   1.497   3.963 -1.1817 -0.8130 -0.6152
20859SOL    HW264572   5.184   1.620   3.887 -1.3748  0.2924  0.9951
20860SOL     OW64573   6.632   1.225   3.588  0.0191  0.4171  0.0040
20860SOL    HW164574   6.542   1.223   3.620  0.9983  1.3450  3.2945
20860SOL    HW264575   6.656   1.133   3.576 -1.1406  0.1340 -0.2298
20861SOL     OW64576   1.042   3.703   5.609  0.4628 -0.1382  0.1636
20861SOL    HW164577   0.992   3.781   5.584  0.5746 -0.9011 -2.6891
20861SOL    HW264578   0.976   3.642   5.641 -0.3818 -0.6607 -2.3592
20862SOL     OW64579   5.879   1.330   1.205  0.1050  1.0122  0.2675
20862SOL    HW164580   5.961   1.292   1.172  0.1613 -0.4537  1.9541
20862SOL    HW264581   5.891   1.334   1.300 -2.0333  0.0664  0.6372
20863SOL     OW64582   6.482   3.004   3.090  0.6870 -0.3755  0.4783
20863SOL    HW164583   6.513   3.069   3.026  1.3285 -2.4630 -1.4823
20863SOL    HW264584   6.516   3.035   3.174  1.1063  1.7078 -0.3944
20864SOL     OW64585   7.819   8.888   5.316  0.0659  0.1143  0.1488
20864SOL    HW164586   7.910   8.859   5.316 -0.0124 -0.2267 -1.2203
20864SOL    HW264587   7.824   8.983   5.305  0.2599  0.0980  0.0925
20865SOL     OW64588   2.268   2.773   0.084 -0.0231 -0.1855 -0.7023
20865SOL    HW164589   2.348   2.818   0.112  0.2812 -1.4133  0.4829
20865SOL    HW264590   2.290   2.740  -0.003  1.1601 -1.3878  0.0153
20866SOL     OW64591   0.153   4.723   4.029  0.2760  0.2297  0.1238
20866SOL    HW164592   0.231   4.777   4.043  0.1912  0.2056  0.7046
20866SOL    HW264593   0.187   4.638   4.003  0.4407  0.2895  0.1448
20867SOL     OW64594   8.511   0.541   7.664 -0.1841  0.1788  0.0418
20867SOL    HW164595   8.569   0.543   7.740  0.4121  3.0742 -0.3515
20867SOL    HW264596   8.569   0.522   7.590 -0.8900 -3.5095  0.2415
20868SOL     OW64597   1.717   4.232   6.694 -0.2627 -0.2386  0.0472
20868SOL    HW164598   1.634   4.246   6.649  0.7567  2.8209 -1.1960
20868SOL    HW264599   1.782   4.271   6.636  1.4471  1.7777  3.0256
20869SOL     OW64600   0.434   4.042   6.195 -0.3111 -0.2623 -0.1562
20869SOL    HW164601   0.387   4.108   6.145 -0.9801 -0.3195  0.3765
20869SOL    HW264602   0.500   4.008   6.134 -1.9342 -1.2519 -1.4358
20870SOL     OW64603   2.975   3.138   4.428  0.0883  0.1117  0.2031
20870SOL    HW164604   2.924   3.196   4.484 -0.0082  1.6037 -1.3455
20870SOL    HW264605   2.922   3.058   4.422 -1.7654  1.3122 -0.6994
20871SOL     OW64606   1.184   2.892   6.923  0.7541  0.1025  0.1947
20871SOL    HW164607   1.184   2.890   7.018 -0.2483 -2.2283  0.2115
20871SOL    HW264608   1.102   2.934   6.899 -0.0179 -1.2370  0.4082
20872SOL     OW64609   4.398   4.196   6.108 -0.1301  0.5182  0.3607
20872SOL    HW164610   4.485   4.179   6.074 -0.9131 -1.8784 -0.6561
20872SOL    HW264611   4.366   4.111   6.137 -1.3647  1.6694  2.7078
20873SOL     OW64612   6.182   3.942   1.959 -0.5271  0.3367 -0.0881
20873SOL    HW164613   6.143   3.862   1.924 -1.0071  0.2448  0.6254
20873SOL    HW264614   6.213   3.990   1.882 -0.6850 -0.3053 -0.5551
20874SOL     OW64615   5.417   8.768   4.214 -0.0446 -0.1042  0.4399
20874SOL    HW164616   5.352   8.790   4.147 -0.3337 -2.3807 -0.1258
20874SOL    HW264617   5.377   8.796   4.296 -2.2825 -2.2939  0.2289
20875SOL     OW64618   0.447   7.917   5.147 -0.3655 -0.1215 -0.1689
20875SOL    HW164619   0.519   7.859   5.123 -1.3947 -1.7089  0.4379
20875SOL    HW264620   0.423   7.960   5.065  0.0865 -0.9256 -0.7369
20876SOL     OW64621   3.477   5.879   6.800 -0.3092 -0.3035  0.3677
20876SOL    HW164622   3.482   5.785   6.786  1.2691 -0.2405  0.3396
20876SOL    HW264623   3.554   5.900   6.852  0.1693  1.1877 -0.8667
20877SOL     OW64624   1.684   4.361   8.668 -0.1503 -0.7598 -0.1969
20877SOL    HW164625   1.726   4.420   8.731  0.1070  0.0072 -1.0677
20877SOL    HW264626   1.597   4.346   8.704 -0.0177 -0.3011  0.3223
20878SOL     OW64627   0.630   1.000   5.282 -0.2898  0.1103  0.3863
20878SOL    HW164628   0.537   1.020   5.267 -0.1851 -0.8403 -2.0074
20878SOL    HW264629   0.629   0.925   5.340 -1.0190  0.3006  0.6294
20879SOL     OW64630   2.744   3.919   8.816  0.0789 -0.5557  0.1911
20879SOL    HW164631   2.836   3.902   8.838  0.4637 -0.6208 -1.3318
20879SOL    HW264632   2.723   3.853   8.749 -0.4996  0.5980 -0.8081
20880SOL     OW64633   1.221   4.860   7.713  0.0641  0.0007 -0.3045
20880SOL    HW164634   1.181   4.907   7.786 -0.5033  0.6099 -0.9939
20880SOL    HW264635   1.173   4.890   7.635  0.0151 -1.3516 -0.8258
20881SOL     OW64636   7.952   0.667   1.603 -0.0170 -0.5607 -0.1436
20881SOL    HW164637   7.975   0.610   1.530 -0.9320 -0.1266 -0.7955
20881SOL    HW264638   7.895   0.733   1.564 -2.0996 -1.3975  1.2872
20882SOL     OW64639   5.984   0.398   5.004 -0.3799  0.0241 -0.2456
20882SOL    HW164640   5.957   0.464   4.939  0.8597 -0.1773 -1.0012
20882SOL    HW264641   5.943   0.427   5.085  0.7978  2.2461 -0.3610
20883SOL     OW64642   0.116   6.372   4.626 -0.3146  0.2339 -0.6477
20883SOL    HW164643   0.158   6.301   4.578 -0.3071  0.0366 -0.3565
20883SOL    HW264644   0.169   6.449   4.608  0.8031 -0.2246  0.5638
20884SOL     OW64645   2.033   4.715   7.976  0.3179 -0.3437  0.4188
20884SOL    HW164646   2.047   4.808   7.993 -0.2909 -0.1234 -0.2288
20884SOL    HW264647   2.041   4.706   7.881 -1.9971 -0.4980  0.1867
20885SOL     OW64648   3.413   3.378   6.823  0.1045  0.4531 -0.4224
20885SOL    HW164649   3.377   3.467   6.825 -1.3510 -0.1091 -0.8885
20885SOL    HW264650   3.337   3.321   6.828  1.0346 -0.7845 -0.0195
20886SOL     OW64651   7.943   0.799   3.885  0.4609  0.3074  0.3397
20886SOL    HW164652   7.883   0.728   3.861 -2.3340  3.1390 -2.0403
20886SOL    HW264653   7.987   0.768   3.964 -0.3596 -4.0831 -0.6755
20887SOL     OW64654   8.262   7.905   4.005  0.4969  0.0130  0.0655
20887SOL    HW164655   8.353   7.931   3.991  0.7728 -0.3898  1.0295
20887SOL    HW264656   8.249   7.828   3.951  0.1273  1.1882 -1.6139
20888SOL     OW64657   3.540   2.211   3.381  0.5288 -0.2429 -0.0356
20888SOL    HW164658   3.458   2.185   3.340  0.7605  0.2773 -0.8498
20888SOL    HW264659   3.537   2.306   3.383  0.8953 -0.2352  0.3947
20889SOL     OW64660   5.900   6.875   2.824  0.5012  0.3394 -0.1802
20889SOL    HW164661   5.971   6.921   2.869  1.0189 -0.6898  0.1031
20889SOL    HW264662   5.943   6.831   2.750 -0.0406  0.5807 -0.6542
20890SOL     OW64663   1.266   7.949   1.317  0.3336  0.0124 -0.8246
20890SOL    HW164664   1.333   8.011   1.289 -0.8494  0.4388 -2.9381
20890SOL    HW264665   1.230   7.914   1.235 -1.1052 -1.1917  0.2653
20891SOL     OW64666   4.517   1.503   2.363 -0.1354  0.6837 -0.3011
20891SOL    HW164667   4.537   1.507   2.270 -1.7319  1.7833 -0.6369
20891SOL    HW264668   4.452   1.432   2.370  0.5859  0.0510  0.1124
20892SOL     OW64669   8.188   0.218   5.338 -0.7547 -0.3748  0.3878
20892SOL    HW164670   8.201   0.232   5.244 -0.4597 -0.2972  0.4378
20892SOL    HW264671   8.240   0.287   5.380  0.9751 -1.7558  0.6411
20893SOL     OW64672   7.795   3.705   3.908 -0.4162 -0.4573 -0.1290
20893SOL    HW164673   7.874   3.668   3.869 -0.6659 -1.4657  0.3043
20893SOL    HW264674   7.733   3.633   3.911 -1.2687  0.2518 -0.1972
20894SOL     OW64675   8.365   2.401   8.384 -0.0646  0.1343 -0.2709
20894SOL    HW164676   8.453   2.417   8.350 -0.0122 -0.7433 -0.5708
20894SOL    HW264677   8.312   2.471   8.347  0.4160  0.4035 -0.4647
20895SOL     OW64678   1.404   2.125   4.983 -0.4761 -0.3897 -0.5535
20895SOL    HW164679   1.318   2.083   4.977 -0.1856 -1.0442 -0.2905
20895SOL    HW264680   1.466   2.052   4.986  0.2304  0.0568 -2.4832
20896SOL     OW64681   5.973   5.006   2.449  0.2111  0.5533 -0.3245
20896SOL    HW164682   6.044   5.025   2.388  0.3301 -0.8543 -0.6544
20896SOL    HW264683   6.006   4.933   2.502  0.0847  1.6956  1.3967
20897SOL     OW64684   1.176   5.668   6.319  0.4009  0.2876 -0.0739
20897SOL    HW164685   1.121   5.743   6.296 -0.4295  0.2397  1.6523
20897SOL    HW264686   1.222   5.695   6.398  0.0244 -1.0350  0.6283
20898SOL     OW64687   8.182   4.057   7.954 -0.3050 -0.3726  0.0684
20898SOL    HW164688   8.144   3.982   7.908 -1.4206  1.5920 -2.4887
20898SOL    HW264689   8.275   4.038   7.958 -0.3964 -1.3844 -1.6484
20899SOL     OW64690   8.574   8.755   1.748  0.0194  0.3326  0.2707
20899SOL    HW164691   8.584   8.796   1.834  2.5643  1.2562 -0.3817
20899SOL    HW264692   8.663   8.746   1.715 -0.8894  0.2426 -2.3867
20900SOL     OW64693   7.964   7.013   3.652 -0.8962  0.1419 -0.1337
20900SOL    HW164694   7.919   6.998   3.735 -1.3241  0.0649 -0.3771
20900SOL    HW264695   8.043   6.960   3.657 -0.7779  0.3600  0.3418
20901SOL     OW64696   3.044   7.926   1.119 -0.2616 -0.1655 -0.1238
20901SOL    HW164697   2.975   7.930   1.053 -1.5563  0.1921  1.2095
20901SOL    HW264698   3.013   7.983   1.189  1.3824 -0.0287  0.5292
20902SOL     OW64699   6.938   1.145   1.395  0.6176 -0.3119  0.0038
20902SOL    HW164700   6.981   1.062   1.416  0.8197  0.1282  1.4149
20902SOL    HW264701   7.010   1.206   1.378  0.5179 -0.0272  0.5841
20903SOL     OW64702   6.925   7.380   1.884  0.0621 -0.3893  0.2706
20903SOL    HW164703   6.999   7.415   1.834 -0.7003  0.4594 -0.2910
20903SOL    HW264704   6.928   7.285   1.870  0.2518 -0.2232 -0.8386
20904SOL     OW64705   1.708   5.096   7.016  0.3118  0.3692  0.2761
20904SOL    HW164706   1.728   5.031   6.949 -0.7352 -1.7118  1.8413
20904SOL    HW264707   1.793   5.137   7.036  0.8402  0.1636 -1.3994
20905SOL     OW64708   6.297   0.097   2.670 -0.6582 -0.0648  0.9920
20905SOL    HW164709   6.259   0.074   2.585  2.9501 -0.4389 -0.6769
20905SOL    HW264710   6.303   0.014   2.717  1.8181 -0.8045 -0.4576
20906SOL     OW64711   3.606   8.343   4.705 -0.0836  0.6926 -0.4670
20906SOL    HW164712   3.556   8.344   4.787 -0.4693  1.4447 -0.6948
20906SOL    HW264713   3.638   8.433   4.696  0.8511  0.3471 -0.6081
20907SOL     OW64714   1.820   0.946   2.338  0.0814 -0.0342 -0.4492
20907SOL    HW164715   1.828   0.912   2.427 -0.9423  0.6627 -0.0726
20907SOL    HW264716   1.812   0.867   2.283  0.9078 -0.4716  0.0383
20908SOL     OW64717   0.891   5.470   6.372 -0.6829 -0.1234 -0.0910
20908SOL    HW164718   0.891   5.375   6.372 -0.3677 -0.1404  1.1959
20908SOL    HW264719   0.975   5.494   6.411 -1.0741  0.6637  0.2903
20909SOL     OW64720   0.819   4.834   0.427 -0.3549 -0.2991 -0.1508
20909SOL    HW164721   0.787   4.791   0.507 -0.4577 -0.2983 -0.1905
20909SOL    HW264722   0.801   4.771   0.357 -2.0079  0.4446 -0.4502
20910SOL     OW64723   8.136   5.514   8.502  0.6376 -0.1472  0.1344
20910SOL    HW164724   8.105   5.454   8.570  1.7212 -1.4846 -0.5040
20910SOL    HW264725   8.063   5.520   8.440  0.8930 -1.7317 -0.3691
20911SOL     OW64726   7.956   0.810   2.739 -0.0357  0.0275  0.4101
20911SOL    HW164727   8.014   0.783   2.811 -0.3401  1.4908  1.2268
20911SOL    HW264728   7.870   0.777   2.764  0.0932 -0.5941  0.0626
20912SOL     OW64729   3.371   5.683   3.754  0.2203  0.8901  0.3019
20912SOL    HW164730   3.322   5.743   3.810 -0.5248 -1.0088  1.8059
20912SOL    HW264731   3.432   5.739   3.706 -0.9455  2.9041  1.0566
20913SOL     OW64732   5.988   5.289   6.154  0.0209 -0.4661  0.5731
20913SOL    HW164733   6.031   5.375   6.151  0.6041 -0.7648  0.1024
20913SOL    HW264734   6.008   5.250   6.069 -0.6927 -0.8583  0.5766
20914SOL     OW64735   6.721   4.311   0.497  0.4199 -0.2368  0.5084
20914SOL    HW164736   6.695   4.347   0.412  1.2598  2.9582  1.4596
20914SOL    HW264737   6.675   4.365   0.561  1.1404 -1.4429  2.1222
20915SOL     OW64738   7.794   7.492   6.124 -0.0760 -0.4626  0.3607
20915SOL    HW164739   7.779   7.399   6.141 -1.6295 -0.1048  1.0900
20915SOL    HW264740   7.877   7.511   6.168  0.2072 -1.4739  0.2819
20916SOL     OW64741   7.838   7.279   3.278 -0.0619 -0.2052 -0.2855
20916SOL    HW164742   7.821   7.302   3.370  1.2879 -0.4552  0.0435
20916SOL    HW264743   7.894   7.350   3.246  1.7196 -1.4661 -0.1011
20917SOL     OW64744   2.910   8.729   0.435 -0.1644 -0.0250 -0.2977
20917SOL    HW164745   3.003   8.736   0.412 -0.0920  0.7594  0.1974
20917SOL    HW264746   2.910   8.705   0.528 -0.4452  0.4965 -0.1557
20918SOL     OW64747   7.836   5.305   7.232 -0.2927  0.4492 -0.2666
20918SOL    HW164748   7.915   5.350   7.202  0.0940  0.1337  0.2627
20918SOL    HW264749   7.861   5.266   7.316 -1.1302  0.6769  0.1027
20919SOL     OW64750   1.536   0.370   4.011 -0.0052  0.6156 -0.0542
20919SOL    HW164751   1.580   0.427   4.074  0.0733  1.9402 -1.2344
20919SOL    HW264752   1.531   0.423   3.931 -0.3770 -0.8769 -1.0673
20920SOL     OW64753   7.371   3.727   3.104 -0.2059 -0.0263  0.3278
20920SOL    HW164754   7.439   3.765   3.160  1.1063  0.0054 -1.2278
20920SOL    HW264755   7.375   3.633   3.121  0.3864 -0.0459  0.0844
20921SOL     OW64756   4.897   7.140   3.195 -0.5804  0.5174  0.8136
20921SOL    HW164757   4.972   7.124   3.253 -0.2653  0.2293  0.3346
20921SOL    HW264758   4.862   7.224   3.224 -0.1216  0.6195  1.0963
20922SOL     OW64759   0.663   6.904   5.289  0.8367  0.0516  0.6434
20922SOL    HW164760   0.693   6.832   5.234  1.1178 -0.6440  1.6831
20922SOL    HW264761   0.736   6.921   5.348  0.5069  0.7174  0.8724
20923SOL     OW64762   2.315   1.200   6.371  0.3202 -0.7659  0.0140
20923SOL    HW164763   2.318   1.289   6.405  0.2395 -1.7464  2.8657
20923SOL    HW264764   2.328   1.210   6.276 -2.1612  2.4429 -0.1584
20924SOL     OW64765   7.840   7.470   1.023  0.1203 -0.4558  0.1969
20924SOL    HW164766   7.763   7.527   1.028  0.9489  0.7043  0.2484
20924SOL    HW264767   7.843   7.442   0.931  0.7115  1.1004 -0.2984
20925SOL     OW64768   4.911   5.703   3.744 -0.2903  0.0547 -0.2798
20925SOL    HW164769   4.993   5.743   3.773  0.3374 -0.6638 -1.0243
20925SOL    HW264770   4.846   5.773   3.750  0.3878  0.6452  0.2593
20926SOL     OW64771   3.239   5.191   7.070  0.3263 -0.0067 -0.3150
20926SOL    HW164772   3.166   5.134   7.044 -1.1741  1.3604  0.6549
20926SOL    HW264773   3.301   5.133   7.114 -1.4952 -0.8333  1.3292
20927SOL     OW64774   3.035   7.218   0.834 -0.3555 -0.1164 -0.1054
20927SOL    HW164775   3.106   7.255   0.887  0.3083 -1.8576  0.3314
20927SOL    HW264776   2.996   7.292   0.789  1.4222  0.9668  0.0537
20928SOL     OW64777   8.019   7.961   4.521  0.0987 -0.1074 -0.3572
20928SOL    HW164778   8.096   8.014   4.540  0.0013 -0.2238  0.4044
20928SOL    HW264779   7.997   7.920   4.605 -1.1180  0.3697 -0.4188
20929SOL     OW64780   3.992   5.719   0.165  0.3494 -0.1664 -0.3817
20929SOL    HW164781   3.978   5.667   0.245  0.2170 -0.2317 -0.4469
20929SOL    HW264782   3.927   5.789   0.170  0.2389 -0.2594 -0.5072
20930SOL     OW64783   5.374   7.150   1.078  0.1621  0.7898 -1.0309
20930SOL    HW164784   5.324   7.231   1.071 -0.7346  0.1616 -2.7167
20930SOL    HW264785   5.311   7.086   1.111  0.4950  0.5065 -0.9439
20931SOL     OW64786   0.616   2.603   6.328  0.5726  0.1928  0.6317
20931SOL    HW164787   0.641   2.642   6.412 -0.9369 -1.2375  1.8270
20931SOL    HW264788   0.648   2.513   6.332  0.6328  0.1579 -0.3974
20932SOL     OW64789   5.908   4.149   1.611 -0.2770 -0.1544 -0.2197
20932SOL    HW164790   5.937   4.225   1.661 -0.4151 -0.3996  0.2430
20932SOL    HW264791   5.813   4.149   1.621 -0.3204 -0.0845 -0.6561
20933SOL     OW64792   2.326   8.110   0.355  0.3329 -0.2282 -0.3871
20933SOL    HW164793   2.287   8.196   0.373  0.7935  0.1990 -1.3481
20933SOL    HW264794   2.388   8.127   0.285 -0.1259 -1.4877 -1.1177
20934SOL     OW64795   2.706   1.277   1.690 -0.7448  0.6919 -0.2778
20934SOL    HW164796   2.784   1.294   1.637  0.4441 -2.7516  0.1405
20934SOL    HW264797   2.736   1.282   1.780 -1.0113 -0.4458 -0.1098
20935SOL     OW64798   4.952   5.668   5.333 -0.3659  0.3640  0.2515
20935SOL    HW164799   5.010   5.649   5.407 -1.0717 -1.0555  0.4832
20935SOL    HW264800   4.922   5.758   5.349  2.6141  1.6211 -0.5069
20936SOL     OW64801   7.246   7.289   5.923  0.0190  0.0038 -0.0787
20936SOL    HW164802   7.183   7.297   5.994  0.1903 -0.8988  0.1938
20936SOL    HW264803   7.278   7.378   5.908  0.2686  0.1482  1.2345
20937SOL     OW64804   0.151   6.504   1.216 -0.0869  0.0207  0.8284
20937SOL    HW164805   0.123   6.434   1.157 -2.4418 -0.6897  2.6240
20937SOL    HW264806   0.213   6.461   1.275 -0.9636 -0.4221  1.4606
20938SOL     OW64807   1.029   8.362   3.851  0.7172 -0.2842  0.1703
20938SOL    HW164808   1.061   8.452   3.854 -0.5159  0.2084 -0.5059
20938SOL    HW264809   1.088   8.317   3.791 -0.0370  0.6977 -1.3755
20939SOL     OW64810   8.520   2.441   1.845  0.0281 -0.2920 -0.0237
20939SOL    HW164811   8.424   2.443   1.849 -0.2040  0.7014 -3.2215
20939SOL    HW264812   8.540   2.366   1.789  1.0876 -0.2337  0.2629
20940SOL     OW64813   1.152   2.865   4.297 -0.0598  0.5464 -0.1114
20940SOL    HW164814   1.134   2.956   4.322 -1.0963  0.5893 -0.9377
20940SOL    HW264815   1.066   2.823   4.299  0.2488 -0.1307 -0.8596
20941SOL     OW64816   0.993   0.168   4.117 -0.0922  0.0236  0.3246
20941SOL    HW164817   1.087   0.152   4.121 -0.1986 -0.4178  1.7707
20941SOL    HW264818   0.981   0.225   4.041  1.3066 -0.1281 -0.0289
20942SOL     OW64819   7.237   0.229   5.629  0.4400 -0.4019 -0.9053
20942SOL    HW164820   7.203   0.149   5.669  1.6926 -1.0358 -1.0629
20942SOL    HW264821   7.268   0.282   5.702  0.5105 -0.4976 -0.8661
20943SOL     OW64822   2.625   3.736   6.550  0.3523  0.1264  0.5992
20943SOL    HW164823   2.592   3.656   6.590  0.7481  0.8567  2.4596
20943SOL    HW264824   2.673   3.706   6.473  0.6808 -1.4551  1.3807
20944SOL     OW64825   2.978   8.028   5.990  0.3025  0.4859 -0.3042
20944SOL    HW164826   2.886   8.026   5.966  0.2479  2.7193 -0.4800
20944SOL    HW264827   3.020   7.971   5.925 -1.0414 -1.5658  0.5296
20945SOL     OW64828   1.043   7.819   6.990 -0.0126  0.0427  0.1216
20945SOL    HW164829   1.102   7.785   6.923 -0.4288 -1.3198  0.4172
20945SOL    HW264830   1.098   7.879   7.041  0.4440  0.6939 -1.0865
20946SOL     OW64831   2.444   3.744   6.863 -0.4734 -0.0457 -0.1251
20946SOL    HW164832   2.431   3.649   6.867 -0.4597 -0.0985 -1.1932
20946SOL    HW264833   2.514   3.761   6.926 -0.2528 -0.7805 -0.1625
20947SOL     OW64834   0.282   0.323   5.006  0.6713 -0.7358 -0.0693
20947SOL    HW164835   0.288   0.357   4.917  1.3482 -1.8803 -0.4716
20947SOL    HW264836   0.362   0.355   5.049  0.1493  0.1568  0.2624
20948SOL     OW64837   2.340   5.604   5.250  0.0511  0.9233  0.0653
20948SOL    HW164838   2.249   5.573   5.244  0.4407 -0.0799 -0.7901
20948SOL    HW264839   2.372   5.566   5.332 -0.1698  0.9461  0.1645
20949SOL     OW64840   1.623   2.227   2.293 -0.6470  0.1172 -0.0159
20949SOL    HW164841   1.633   2.142   2.249 -0.4185 -0.1870  0.6152
20949SOL    HW264842   1.554   2.212   2.358 -1.4122  0.7311 -0.6703
20950SOL     OW64843   0.940   7.027   1.794  0.0795  0.3909  0.3190
20950SOL    HW164844   1.001   7.100   1.783  0.2021  0.5798  1.9834
20950SOL    HW264845   0.853   7.067   1.792  0.0959  0.4151  0.0676
20951SOL     OW64846   4.118   7.145   2.197 -0.4472 -0.1114  0.3762
20951SOL    HW164847   4.161   7.078   2.144 -1.5616  0.9680 -2.0724
20951SOL    HW264848   4.029   7.110   2.212 -0.6736  0.3141  0.0479
20952SOL     OW64849   1.386   7.260   6.512  0.2158  0.3367 -0.4190
20952SOL    HW164850   1.397   7.167   6.489 -1.6598 -0.1680  0.5327
20952SOL    HW264851   1.291   7.272   6.517  0.4451  1.9054  1.0742
20953SOL     OW64852   7.377   8.254   1.675  0.3089 -0.3834 -0.1900
20953SOL    HW164853   7.319   8.261   1.751 -0.5781  1.9471 -1.0167
20953SOL    HW264854   7.429   8.334   1.677  1.8634 -1.3215 -0.8339
20954SOL     OW64855   7.970   4.883   2.359  0.0192 -0.2267  0.0122
20954SOL    HW164856   7.975   4.951   2.291  0.0835  0.2288  0.4680
20954SOL    HW264857   7.876   4.865   2.368  0.1001 -3.0230 -2.8577
20955SOL     OW64858   6.802   8.165   8.784  0.1706 -0.3313  0.1554
20955SOL    HW164859   6.749   8.086   8.795 -1.3178  0.4044 -1.3013
20955SOL    HW264860   6.739   8.234   8.766  1.5711  0.7388 -0.8846
20956SOL     OW64861   5.022   7.259   8.296 -0.6419  0.1274  0.8183
20956SOL    HW164862   4.941   7.260   8.244 -0.6899 -0.7240  0.8672
20956SOL    HW264863   5.017   7.338   8.349  0.1228  1.9028 -1.5560
20957SOL     OW64864   3.537   6.769   1.172  0.4144  0.8980 -0.0631
20957SOL    HW164865   3.451   6.759   1.214  1.1067 -1.0352  1.0276
20957SOL    HW264866   3.519   6.821   1.094 -2.0955 -0.8973 -0.8302
20958SOL     OW64867   2.807   6.458   5.834 -0.6142 -0.1583 -0.5836
20958SOL    HW164868   2.816   6.532   5.895 -0.3107  0.2261 -1.0924
20958SOL    HW264869   2.730   6.480   5.782  0.9751  1.1422 -2.5470
20959SOL     OW64870   7.496   2.490   6.774  0.2758  0.9397  0.4207
20959SOL    HW164871   7.540   2.405   6.775  1.1605  1.3877  0.8391
20959SOL    HW264872   7.562   2.551   6.739 -0.4434  1.4034 -0.1588
20960SOL     OW64873   5.363   5.100   6.813  0.0493 -0.5573 -0.5938
20960SOL    HW164874   5.435   5.066   6.760 -0.4381  0.9340 -2.3039
20960SOL    HW264875   5.329   5.174   6.763 -1.3683  0.0484  1.1572
20961SOL     OW64876   0.661   5.502   7.736  1.3547 -0.2434  0.4496
20961SOL    HW164877   0.742   5.462   7.705  0.8878 -0.3992 -0.6210
20961SOL    HW264878   0.634   5.448   7.810  2.6703  0.3356  1.3799
20962SOL     OW64879   6.563   2.575   6.953  0.5354  0.1494 -0.4324
20962SOL    HW164880   6.609   2.493   6.937  0.0745 -0.2306  0.1252
20962SOL    HW264881   6.470   2.551   6.950  0.3966  0.2115  1.7423
20963SOL     OW64882   5.694   3.409   2.363  0.0721 -0.0492  0.2052
20963SOL    HW164883   5.670   3.493   2.401 -0.1293 -0.6052  1.3421
20963SOL    HW264884   5.677   3.419   2.269 -0.4370  0.9997  0.3994
20964SOL     OW64885   1.488   4.561   2.215 -0.4077 -0.4538  0.2135
20964SOL    HW164886   1.401   4.527   2.196  0.2131 -2.3447  0.5014
20964SOL    HW264887   1.512   4.519   2.298  0.6352  0.3013  0.3140
20965SOL     OW64888   5.712   5.573   0.214 -0.0533  0.0666 -0.0907
20965SOL    HW164889   5.682   5.658   0.181 -0.3769 -0.0027  0.0175
20965SOL    HW264890   5.656   5.509   0.170 -1.2495  0.0297  1.3905
20966SOL     OW64891   5.295   8.743   7.847  0.3695 -0.3839 -0.2498
20966SOL    HW164892   5.307   8.832   7.879 -0.7179 -0.0071 -0.8371
20966SOL    HW264893   5.287   8.690   7.926 -0.5939  0.2873  0.1300
20967SOL     OW64894   3.596   8.868   0.008  0.1252 -0.0509  0.2188
20967SOL    HW164895   3.660   8.840   0.073  1.0124  0.9536 -0.1959
20967SOL    HW264896   3.642   8.859  -0.076  0.1691  1.7910  0.0011
20968SOL     OW64897   0.403   6.785   7.793  0.3715 -0.2012 -0.5040
20968SOL    HW164898   0.417   6.692   7.772  2.0933 -0.2570  0.6632
20968SOL    HW264899   0.370   6.784   7.883 -0.7495  0.3005 -0.8866
20969SOL     OW64900   0.087   1.621   5.681  0.5616  0.4067 -0.1647
20969SOL    HW164901   0.165   1.581   5.643  0.7964  1.0556 -0.3818
20969SOL    HW264902   0.069   1.569   5.759 -1.1189 -2.2511 -2.1506
20970SOL     OW64903   2.004   1.212   6.866 -0.2046  0.3329  0.0379
20970SOL    HW164904   2.077   1.151   6.874 -0.9761 -0.6530 -0.2453
20970SOL    HW264905   1.962   1.188   6.783 -0.7113  1.0442  0.0799
20971SOL     OW64906   7.123   3.717   0.823  0.0126  0.2718 -0.0675
20971SOL    HW164907   7.082   3.640   0.783 -0.8739  0.4693  0.4365
20971SOL    HW264908   7.168   3.682   0.900 -1.8898  0.4527  1.2093
20972SOL     OW64909   4.672   0.459   6.518  0.0352 -0.0345  0.2760
20972SOL    HW164910   4.582   0.472   6.487  0.2835  1.8498  0.2265
20972SOL    HW264911   4.663   0.408   6.598 -1.1740  0.9343  0.7840
20973SOL     OW64912   3.437   0.771   7.808 -0.5369 -0.4180  0.4153
20973SOL    HW164913   3.442   0.676   7.818 -1.0266 -0.4227  0.6223
20973SOL    HW264914   3.529   0.799   7.805 -0.3820 -0.8211  1.1113
20974SOL     OW64915   1.041   0.319   4.953  0.2809 -0.0832  0.1508
20974SOL    HW164916   1.018   0.399   4.904  1.8360  0.7698  0.7569
20974SOL    HW264917   0.983   0.252   4.917  0.3931  0.8314 -1.8771
20975SOL     OW64918   7.982   3.922   7.705  0.6377  0.5612 -0.2263
20975SOL    HW164919   8.028   3.853   7.753  0.9871  0.4523 -0.7175
20975SOL    HW264920   8.040   3.945   7.633  0.0068  0.5446 -0.7550
20976SOL     OW64921   8.700   6.487   0.214  0.2425 -0.2551 -0.8730
20976SOL    HW164922   8.676   6.441   0.294 -3.7041  1.0988 -1.0235
20976SOL    HW264923   8.661   6.434   0.144 -4.1455  2.7136 -1.0640
20977SOL     OW64924   1.404   1.246   0.548 -0.5143  0.1007  0.5382
20977SOL    HW164925   1.486   1.294   0.535 -0.5722  0.7638  2.3141
20977SOL    HW264926   1.342   1.288   0.489 -0.1069  1.0476  0.7569
20978SOL     OW64927   4.928   5.997   5.097 -0.0671  0.1033 -0.1743
20978SOL    HW164928   4.862   5.978   5.162  1.5102  1.8775  2.1303
20978SOL    HW264929   4.928   6.093   5.091  0.8426  0.0383 -1.6994
20979SOL     OW64930   6.521   7.270   7.480  0.2011  0.3972  0.1066
20979SOL    HW164931   6.545   7.296   7.391 -0.0831  0.4169  0.0370
20979SOL    HW264932   6.500   7.177   7.473 -0.3984  0.5341  0.0391
20980SOL     OW64933   8.068   2.854   8.800 -0.1083  0.2055 -0.3211
20980SOL    HW164934   8.000   2.902   8.753 -0.7437 -0.5623 -0.2140
20980SOL    HW264935   8.046   2.762   8.787 -0.1393 -0.0329  1.2188
20981SOL     OW64936   5.277   6.430   0.023 -0.0307 -0.5454 -0.3776
20981SOL    HW164937   5.341   6.500   0.009  0.3163 -0.7305  0.2633
20981SOL    HW264938   5.241   6.447   0.110 -1.7939  0.2909 -1.2250
20982SOL     OW64939   4.917   7.885   8.478 -0.3757 -0.3817 -0.6290
20982SOL    HW164940   4.861   7.954   8.514  0.4677 -1.2733  2.7445
20982SOL    HW264941   4.970   7.929   8.412 -2.5105  1.2566 -1.3636
20983SOL     OW64942   8.890   2.283   3.891 -0.0425 -0.1082  0.0900
20983SOL    HW164943   8.802   2.313   3.912 -0.3066 -1.4819  1.0926
20983SOL    HW264944   8.944   2.308   3.966  0.5783  1.2091 -0.7502
20984SOL     OW64945   2.024   3.861   6.467  0.1105 -0.7696  0.1368
20984SOL    HW164946   2.114   3.866   6.435  0.2673 -1.4872  0.4434
20984SOL    HW264947   1.978   3.806   6.403 -1.1686  2.7897 -2.2819
20985SOL     OW64948   8.148   6.551   1.489 -0.1574 -0.2932  0.2783
20985SOL    HW164949   8.173   6.460   1.473 -2.4807 -0.8704 -0.4613
20985SOL    HW264950   8.069   6.545   1.542  0.8345  1.3968  2.0737
20986SOL     OW64951   6.427   4.185   7.775  0.4091  0.6327 -0.3432
20986SOL    HW164952   6.478   4.117   7.730  0.9095 -0.2520  1.4694
20986SOL    HW264953   6.488   4.258   7.785  0.5513  0.5196 -0.3788
20987SOL     OW64954   0.026   0.331   2.189 -0.1265  0.0935 -0.5249
20987SOL    HW164955  -0.058   0.286   2.182  0.1628 -0.5312 -0.0839
20987SOL    HW264956   0.031   0.358   2.281  0.1112  0.2183 -0.5743
20988SOL     OW64957   1.857   7.487   8.454  0.1251 -0.0287 -0.2385
20988SOL    HW164958   1.944   7.451   8.470  0.5263  0.6015 -0.9281
20988SOL    HW264959   1.859   7.574   8.493 -0.6814 -0.5421  0.9976
20989SOL     OW64960   2.899   8.403   5.522 -0.4266  0.0373 -0.3247
20989SOL    HW164961   2.951   8.336   5.478 -2.5898 -0.6444 -1.9803
20989SOL    HW264962   2.872   8.363   5.604  0.8583  0.0741  0.1412
20990SOL     OW64963   0.194   0.791   7.311  0.0303  0.0556  0.3248
20990SOL    HW164964   0.206   0.882   7.340  0.0900 -0.3692  1.7231
20990SOL    HW264965   0.275   0.747   7.338  1.1809  0.1018 -2.6884
20991SOL     OW64966   3.488   2.785   2.562  1.4740 -0.0798 -0.2443
20991SOL    HW164967   3.440   2.724   2.617 -1.0967 -0.0607 -2.2585
20991SOL    HW264968   3.563   2.735   2.529  2.8554 -0.1983  2.7404
20992SOL     OW64969   0.142   8.872   3.532  0.0851  0.5067  0.2617
20992SOL    HW164970   0.186   8.896   3.614  0.7079  1.1214 -0.2383
20992SOL    HW264971   0.116   8.956   3.493  0.7719  0.2964 -0.6924
20993SOL     OW64972   6.257   0.142   7.361  0.7064  0.2807  0.2179
20993SOL    HW164973   6.303   0.180   7.286 -0.6943 -0.8211 -1.2555
20993SOL    HW264974   6.181   0.100   7.324 -0.5407  0.4649  2.3898
20994SOL     OW64975   3.548   3.409   4.403 -0.4349 -0.9765 -0.2648
20994SOL    HW164976   3.483   3.361   4.453  1.0540  1.1901  4.3064
20994SOL    HW264977   3.624   3.352   4.400 -0.3534 -0.9130  0.5059
20995SOL     OW64978   2.332   4.301   7.200  0.1379  0.4450 -0.1844
20995SOL    HW164979   2.381   4.220   7.184  0.5751  0.5124  0.7476
20995SOL    HW264980   2.399   4.366   7.223 -0.3214  0.6897  0.5162
20996SOL     OW64981   5.930   1.546   3.268 -0.2701  0.0779  0.6630
20996SOL    HW164982   5.984   1.584   3.338  1.1729 -0.8031  0.0672
20996SOL    HW264983   5.947   1.452   3.274  1.3665  0.1079 -1.9918
20997SOL     OW64984   6.885   0.811   0.580  0.3655 -0.5108 -0.5447
20997SOL    HW164985   6.884   0.861   0.499 -1.0948  0.9953  0.3481
20997SOL    HW264986   6.853   0.724   0.554  0.6098 -0.2809 -1.6877
20998SOL     OW64987   1.581   3.142   0.737 -0.5356 -0.3640  0.2686
20998SOL    HW164988   1.672   3.120   0.756 -0.4103  0.4104  0.5869
20998SOL    HW264989   1.566   3.224   0.784 -1.2987 -0.3131 -0.0574
20999SOL     OW64990   4.849   0.756   8.439  0.2440  0.2958  0.1311
20999SOL    HW164991   4.859   0.665   8.412  1.0155  0.8143 -1.4930
20999SOL    HW264992   4.860   0.755   8.534 -1.4387 -1.5091  0.3531
21000SOL     OW64993   2.452   3.820   7.489 -0.3061  0.2971 -0.0570
21000SOL    HW164994   2.367   3.864   7.490 -0.2407  0.4147  0.2598
21000SOL    HW264995   2.505   3.868   7.552 -0.3131 -0.3963  0.4861
21001SOL     OW64996   7.659   8.269   3.371  0.1743  0.2635 -0.2752
21001SOL    HW164997   7.609   8.302   3.296 -0.9063 -1.8531 -0.5457
21001SOL    HW264998   7.655   8.174   3.364  1.9430  0.0042  1.2654
21002SOL     OW64999   8.796   4.373   2.084 -0.0536 -0.4769  0.2791
21002SOL    HW165000   8.777   4.419   2.002 -0.6630  1.1479  1.3055
21002SOL    HW265001   8.711   4.358   2.124  0.0526 -3.0755 -0.2584
21003SOL     OW65002   8.413   8.251   6.166  0.3609 -0.4901 -0.1635
21003SOL    HW165003   8.505   8.257   6.191  0.2828  0.3244 -0.0666
21003SOL    HW265004   8.365   8.268   6.247  0.1192  0.8537 -0.5609
21004SOL     OW65005   1.764   4.970   2.600  0.1432 -0.1003  0.2259
21004SOL    HW165006   1.716   4.907   2.546 -0.1529 -0.1521  0.5398
21004SOL    HW265007   1.844   4.924   2.624  0.2912 -0.0641 -0.1929
21005SOL     OW65008   8.843   0.463   1.656  0.0266 -0.1296  0.6974
21005SOL    HW165009   8.900   0.390   1.632  1.4666  0.9506  0.6360
21005SOL    HW265010   8.867   0.482   1.747 -0.9411 -0.2548  0.9883
21006SOL     OW65011   7.388   0.850   0.651 -0.6172  0.1472  0.1341
21006SOL    HW165012   7.447   0.881   0.719 -0.9842 -1.1250  1.0698
21006SOL    HW265013   7.301   0.869   0.685 -0.8770 -2.2543  0.9881
21007SOL     OW65014   3.843   8.333   1.176 -0.0147 -0.0477 -0.0831
21007SOL    HW165015   3.785   8.409   1.179 -0.6958 -0.3628 -2.7457
21007SOL    HW265016   3.786   8.260   1.154  0.8600 -1.1029  0.9978
21008SOL     OW65017   6.134   2.320   2.237 -0.3233  0.3502  0.0796
21008SOL    HW165018   6.143   2.249   2.173 -0.0774  0.0690  0.4266
21008SOL    HW265019   6.224   2.345   2.259 -0.3656 -0.6827  1.5645
21009SOL     OW65020   3.389   4.758   4.598  0.2623  0.3203 -0.0943
21009SOL    HW165021   3.419   4.803   4.519 -0.1043  1.8979  0.6119
21009SOL    HW265022   3.380   4.828   4.663 -4.6338  0.0145 -0.1088
21010SOL     OW65023   7.588   0.106   4.918 -0.5978  0.4251  0.5258
21010SOL    HW165024   7.584   0.074   4.828  0.5695  2.6859 -0.4155
21010SOL    HW265025   7.497   0.123   4.942 -0.8037  1.6893 -1.0014
21011SOL     OW65026   2.818   8.443   6.040 -0.7826 -0.0321 -0.1242
21011SOL    HW165027   2.786   8.358   6.068  0.3942 -0.9166 -1.3163
21011SOL    HW265028   2.845   8.487   6.121 -1.6949 -0.6556  0.5250
21012SOL     OW65029   0.403   3.438   8.284  0.4814  0.0966  0.6871
21012SOL    HW165030   0.432   3.426   8.374  0.2024 -0.6235  0.6897
21012SOL    HW265031   0.385   3.349   8.253  1.8203  0.2099 -0.5081
21013SOL     OW65032   1.955   3.592   5.394  1.2566 -0.5214 -0.9056
21013SOL    HW165033   2.029   3.565   5.449  0.5889  0.8475  0.7778
21013SOL    HW265034   1.961   3.687   5.391  0.2742 -0.4697 -1.8167
21014SOL     OW65035   2.215   8.447   3.667 -0.1861 -0.5073 -0.0806
21014SOL    HW165036   2.137   8.477   3.619  0.2930 -0.0568 -0.5971
21014SOL    HW265037   2.216   8.501   3.747 -0.2110 -0.2647 -0.2430
21015SOL     OW65038   3.379   0.892   1.188 -0.0516  0.4168 -0.0662
21015SOL    HW165039   3.324   0.815   1.174 -1.1394  0.9479  1.0686
21015SOL    HW265040   3.378   0.906   1.282  1.8572  0.6137 -0.0336
21016SOL     OW65041   7.302   4.095   4.373 -0.1825  0.3169  0.3110
21016SOL    HW165042   7.394   4.071   4.384 -0.7581 -1.8360  0.8877
21016SOL    HW265043   7.260   4.016   4.338 -2.3647  0.1185  3.0235
21017SOL     OW65044   1.200   7.715   3.892 -0.1518 -0.2694 -0.6566
21017SOL    HW165045   1.238   7.783   3.948  0.3788 -0.7856 -0.3796
21017SOL    HW265046   1.162   7.652   3.953 -1.4527  0.2207 -0.9309
21018SOL     OW65047   3.918   8.589   0.866  0.0047 -0.0988  0.1977
21018SOL    HW165048   3.948   8.507   0.906 -0.8115 -0.5783 -0.1391
21018SOL    HW265049   3.967   8.595   0.784 -1.4735 -1.4018 -0.8505
21019SOL     OW65050   2.111   0.739   6.812  0.4895 -0.0899 -0.2569
21019SOL    HW165051   2.030   0.790   6.817  1.0053  1.0528 -2.2836
21019SOL    HW265052   2.084   0.651   6.788 -0.1240  0.5564 -2.0531
21020SOL     OW65053   1.445   2.883   2.527 -0.2058 -0.3955  0.2681
21020SOL    HW165054   1.382   2.881   2.599  0.4812  1.2988  0.9838
21020SOL    HW265055   1.415   2.956   2.472  0.0402 -0.8250 -0.4432
21021SOL     OW65056   4.520   7.395   6.302 -0.1216  0.3969 -0.3555
21021SOL    HW165057   4.508   7.425   6.392 -0.1229  0.4810 -0.3845
21021SOL    HW265058   4.565   7.467   6.258 -2.3225  1.4122 -1.0736
21022SOL     OW65059   2.489   8.100   4.635 -0.2592 -0.0896 -0.0823
21022SOL    HW165060   2.581   8.125   4.642  0.2725 -1.9026 -0.2916
21022SOL    HW265061   2.466   8.116   4.544 -0.1062  0.1769 -0.0756
21023SOL     OW65062   8.362   3.887   2.884 -0.1363  0.0971  0.4093
21023SOL    HW165063   8.395   3.975   2.904 -0.9555  0.8651 -1.4291
21023SOL    HW265064   8.383   3.836   2.963 -0.3350  2.1051  1.8567
21024SOL     OW65065   6.375   5.943   4.674 -0.0551 -0.3446  0.6054
21024SOL    HW165066   6.286   5.910   4.659 -0.3839  0.3639  0.9332
21024SOL    HW265067   6.408   5.963   4.587 -0.9103  1.1032  0.5812
21025SOL     OW65068   8.486   2.145   6.654  0.1350  0.5067  0.2968
21025SOL    HW165069   8.571   2.155   6.696  0.2915  1.0153 -0.1359
21025SOL    HW265070   8.460   2.055   6.676  0.5794  0.4899  0.7930
21026SOL     OW65071   6.677   8.033   0.581  0.3149 -0.4907 -0.0908
21026SOL    HW165072   6.608   8.080   0.534 -0.8676 -1.2703  0.7717
21026SOL    HW265073   6.634   8.005   0.663  1.5037 -1.4587  0.2326
21027SOL     OW65074   7.480   4.737   4.133  0.4546 -0.1409 -0.2525
21027SOL    HW165075   7.404   4.680   4.145 -0.6665  1.4757  0.8761
21027SOL    HW265076   7.444   4.815   4.090  1.2978  0.9582  0.9728
21028SOL     OW65077   3.955   6.750   8.424  0.3578 -0.1058 -0.1481
21028SOL    HW165078   4.036   6.733   8.472  1.3869 -2.0006 -2.3369
21028SOL    HW265079   3.977   6.823   8.366  0.5628 -0.6787 -0.8067
21029SOL     OW65080   2.850   2.830   3.758 -0.0868  0.1961  0.7302
21029SOL    HW165081   2.898   2.895   3.809  0.9622  1.2784 -1.5075
21029SOL    HW265082   2.840   2.870   3.672 -3.5142 -0.7359  0.5643
21030SOL     OW65083   0.870   8.621   4.007  0.2176 -0.4729 -0.0479
21030SOL    HW165084   0.876   8.672   4.088  0.0662 -0.0798 -0.2826
21030SOL    HW265085   0.869   8.530   4.037 -0.8527 -0.3189  0.4653
21031SOL     OW65086   3.977   6.984   3.492  0.5214  0.1145 -0.1133
21031SOL    HW165087   4.056   6.967   3.543  0.2670 -0.5645  0.0715
21031SOL    HW265088   3.996   7.063   3.442  1.1456  0.2103  0.2766
21032SOL     OW65089   2.284   6.048   7.186 -0.5966 -0.1047 -0.4792
21032SOL    HW165090   2.234   5.970   7.160 -0.1805 -0.9685  1.1705
21032SOL    HW265091   2.313   6.086   7.103 -0.1699 -2.1265 -1.3343
21033SOL     OW65092   2.101   6.862   0.765  0.0298 -0.3812  0.1719
21033SOL    HW165093   2.120   6.775   0.802  2.1755  0.0428  0.2393
21033SOL    HW265094   2.177   6.880   0.709 -0.7126  1.1765 -0.3812
21034SOL     OW65095   6.076   3.201   6.140  0.0514  0.5693 -0.0509
21034SOL    HW165096   6.034   3.286   6.155 -0.4293  0.3202  0.0251
21034SOL    HW265097   6.018   3.156   6.077 -0.9305 -0.5908  1.5917
21035SOL     OW65098   2.529   0.608   4.256 -0.5189 -0.2789 -0.0661
21035SOL    HW165099   2.559   0.526   4.216 -2.8788 -0.5068 -1.5332
21035SOL    HW265100   2.452   0.584   4.306  0.2290  0.6804  1.6349
21036SOL     OW65101   3.458   4.055   7.431 -0.5005 -0.2440 -0.0692
21036SOL    HW165102   3.364   4.054   7.412 -0.5305  0.0505  0.0636
21036SOL    HW265103   3.499   4.022   7.351 -0.6917 -0.0220 -0.2615
21037SOL     OW65104   1.141   0.799   6.578  0.6766  0.5221  0.4393
21037SOL    HW165105   1.188   0.716   6.582 -0.2060  0.0549  1.8508
21037SOL    HW265106   1.094   0.805   6.661 -1.1343  1.3280 -0.5550
21038SOL     OW65107   8.744   2.162   6.411 -0.1639 -0.1378  0.2517
21038SOL    HW165108   8.833   2.156   6.446 -0.1674  0.4277  0.3722
21038SOL    HW265109   8.753   2.139   6.319 -0.1218 -1.4391  0.5675
21039SOL     OW65110   1.898   0.142   8.716 -0.8096 -0.1416  0.8155
21039SOL    HW165111   1.984   0.111   8.690 -1.3271  0.5262 -2.0238
21039SOL    HW265112   1.909   0.236   8.729 -1.4029  0.2835 -1.3755
21040SOL     OW65113   4.595   1.610   0.005 -0.2900  0.2318 -0.0254
21040SOL    HW165114   4.637   1.604   0.090  0.3425 -0.0028 -0.3455
21040SOL    HW265115   4.664   1.589  -0.058 -1.4147 -2.5934 -0.4619
21041SOL     OW65116   4.451   1.813   5.014  0.0284  0.0920  0.5318
21041SOL    HW165117   4.504   1.771   5.081  1.8813  0.3099 -0.7375
21041SOL    HW265118   4.455   1.754   4.939 -0.2996  0.8201 -0.0770
21042SOL     OW65119   3.654   0.462   0.490  0.5691 -0.1392 -0.0867
21042SOL    HW165120   3.666   0.370   0.516 -2.2872 -0.2749  1.1803
21042SOL    HW265121   3.568   0.485   0.524  1.5091  3.3053  0.3810
21043SOL     OW65122   0.073   4.723   4.674  0.2724 -0.0678 -0.3644
21043SOL    HW165123  -0.016   4.707   4.706  0.7411  1.2732  1.8437
21043SOL    HW265124   0.065   4.720   4.578 -1.8345 -1.4109 -0.2125
21044SOL     OW65125   5.281   8.834   4.460 -0.0811 -0.1367  0.7343
21044SOL    HW165126   5.187   8.841   4.479 -0.1734 -2.5369  1.4456
21044SOL    HW265127   5.324   8.848   4.545  0.1325 -0.1475  0.6281
21045SOL     OW65128   7.773   0.316   2.628  0.2036  0.1112  0.2591
21045SOL    HW165129   7.803   0.373   2.698 -0.9057 -0.2432  1.0401
21045SOL    HW265130   7.678   0.321   2.631  0.0983 -1.2407 -0.0946
21046SOL     OW65131   3.186   0.242   2.178 -0.0074 -0.5175 -0.2493
21046SOL    HW165132   3.251   0.244   2.107 -1.6094 -1.0617 -1.8152
21046SOL    HW265133   3.135   0.163   2.161 -0.3953 -0.6911  1.5903
21047SOL     OW65134   7.083   5.929   3.603 -0.0566  0.2409  0.4761
21047SOL    HW165135   7.113   5.844   3.634 -1.2791 -0.8239 -1.1095
21047SOL    HW265136   7.026   5.961   3.673  1.5577  0.4938  1.7469
21048SOL     OW65137   8.304   2.368   4.751 -0.6231  0.9500 -0.3578
21048SOL    HW165138   8.302   2.328   4.838  0.1976 -3.4311 -2.0656
21048SOL    HW265139   8.379   2.428   4.754 -0.1516  0.3559  1.7412
21049SOL     OW65140   6.429   5.469   1.371 -0.2408  0.6762 -0.3958
21049SOL    HW165141   6.484   5.464   1.292  1.4055  0.1715  0.7250
21049SOL    HW265142   6.487   5.503   1.438 -0.3846 -2.5494  1.5877
21050SOL     OW65143   5.298   6.117   8.668 -0.0726  0.4072  0.3401
21050SOL    HW165144   5.377   6.169   8.654  0.1759  0.7477  2.5876
21050SOL    HW265145   5.233   6.181   8.696 -1.1096  0.0947 -1.2463
21051SOL     OW65146   0.229   2.689   0.714  0.1073 -0.1845 -0.3565
21051SOL    HW165147   0.231   2.658   0.804 -0.7560  2.3339  0.6246
21051SOL    HW265148   0.315   2.728   0.700  0.8174 -1.9623 -1.2259
21052SOL     OW65149   5.000   8.256   1.176 -0.4784 -0.4103 -0.0407
21052SOL    HW165150   4.954   8.262   1.092  0.1312 -2.2477 -0.5539
21052SOL    HW265151   4.958   8.184   1.222 -0.3386  0.1157  0.9498
21053SOL     OW65152   0.521   2.100   6.395  0.0619 -0.5558 -0.5023
21053SOL    HW165153   0.539   2.080   6.486 -0.8043  0.8505  0.0095
21053SOL    HW265154   0.552   2.023   6.347 -0.8896 -2.0033  1.0927
21054SOL     OW65155   6.881   2.481   5.061  0.1678 -0.1913 -0.1312
21054SOL    HW165156   6.965   2.522   5.080 -0.0553  1.3262 -2.0412
21054SOL    HW265157   6.818   2.527   5.116  0.3952 -0.4426  0.3466
21055SOL     OW65158   6.820   1.778   5.682 -0.4742 -0.3668  0.4728
21055SOL    HW165159   6.870   1.807   5.759  0.6201  1.1396 -0.7472
21055SOL    HW265160   6.756   1.847   5.668 -0.5933 -0.5833 -0.0525
21056SOL     OW65161   6.270   1.372   7.968  0.1767 -0.0814 -0.0027
21056SOL    HW165162   6.196   1.408   8.017 -0.6163  0.5020 -1.5771
21056SOL    HW265163   6.237   1.290   7.932  0.9153 -0.7500  0.7846
21057SOL     OW65164   4.874   2.133   5.278  0.0950 -0.4163  0.3884
21057SOL    HW165165   4.823   2.139   5.359 -0.3918  0.9843  0.0277
21057SOL    HW265166   4.844   2.052   5.237  0.6407 -1.3481  1.7794
21058SOL     OW65167   4.329   6.460   8.009 -0.4147 -0.4603 -0.4622
21058SOL    HW165168   4.293   6.515   7.939 -0.4414  1.0589  0.6951
21058SOL    HW265169   4.254   6.435   8.062 -0.1476  0.1745  0.2269
21059SOL     OW65170   0.374   1.908   1.695  0.3981  0.4198  0.4260
21059SOL    HW165171   0.380   1.888   1.602 -1.7397 -2.3287  0.7271
21059SOL    HW265172   0.285   1.880   1.719  0.3256  2.5020  2.9924
21060SOL     OW65173   4.733   7.675   5.229  0.2056 -0.2648  0.2183
21060SOL    HW165174   4.741   7.624   5.149  0.8906  1.6443 -1.0082
21060SOL    HW265175   4.818   7.718   5.239  0.5727 -1.4137  2.6942
21061SOL     OW65176   5.713   2.368   6.082 -0.0190  0.0582 -0.0850
21061SOL    HW165177   5.672   2.281   6.086 -0.7163  0.3885  0.2959
21061SOL    HW265178   5.803   2.351   6.056 -0.5799 -0.6479 -1.6679
21062SOL     OW65179   4.869   0.067   5.431  0.3814 -0.0282 -1.3038
21062SOL    HW165180   4.810   0.040   5.360 -0.6147 -0.6530 -0.2789
21062SOL    HW265181   4.846   0.158   5.449  0.8850  0.2469 -1.9989
21063SOL     OW65182   2.507   0.743   6.424  0.1016 -0.0186  0.4712
21063SOL    HW165183   2.596   0.724   6.395  0.5472 -0.4326  2.0542
21063SOL    HW265184   2.517   0.780   6.512 -1.2655  0.2778  0.5242
21064SOL     OW65185   7.437   7.425   4.293 -0.0327  0.2675  0.2290
21064SOL    HW165186   7.533   7.427   4.294 -0.0218  0.0159  1.5218
21064SOL    HW265187   7.412   7.514   4.269  0.5298  0.2729 -0.3577
21065SOL     OW65188   1.428   0.995   7.872  0.2991  0.0139  0.4835
21065SOL    HW165189   1.426   0.902   7.849 -0.5009  0.2121 -0.2859
21065SOL    HW265190   1.376   1.002   7.952  0.4372 -0.2115  0.5924
21066SOL     OW65191   0.715   3.069   6.407  0.0958 -0.6308 -0.1803
21066SOL    HW165192   0.775   3.019   6.351  0.7409 -0.2784  0.1881
21066SOL    HW265193   0.691   3.145   6.353 -1.4872 -1.6763 -1.0386
21067SOL     OW65194   7.355   4.472   0.610  0.0169 -0.4377 -0.6904
21067SOL    HW165195   7.262   4.459   0.628  0.1565 -0.1182  0.3795
21067SOL    HW265196   7.397   4.458   0.695  0.8289  0.4806 -0.9277
21068SOL     OW65197   7.834   3.812   4.205  0.6054  0.1840  0.3270
21068SOL    HW165198   7.925   3.794   4.230  0.9452  2.0471  0.6176
21068SOL    HW265199   7.826   3.780   4.115  1.5668  0.0769  0.2753
21069SOL     OW65200   5.216   7.107   5.307 -0.5684  0.4192 -0.2883
21069SOL    HW165201   5.208   7.175   5.374 -1.6507 -0.0946  0.1294
21069SOL    HW265202   5.191   7.026   5.353  0.9463 -0.3143 -0.7020
21070SOL     OW65203   0.107   8.129   4.343  0.3295  0.3152  0.2310
21070SOL    HW165204   0.128   8.219   4.317 -2.6595  0.9169 -0.4427
21070SOL    HW265205   0.041   8.101   4.281  1.8466 -2.7880 -0.1581
21071SOL     OW65206   6.757   2.243   5.378  0.5536 -0.0639  0.5199
21071SOL    HW165207   6.796   2.296   5.447  0.1511 -0.8555  1.3647
21071SOL    HW265208   6.711   2.307   5.323  1.7868  0.6983  0.3337
21072SOL     OW65209   2.277   6.833   6.180  0.2584 -0.2491 -0.1916
21072SOL    HW165210   2.218   6.903   6.154  1.9111  1.5773  0.7184
21072SOL    HW265211   2.321   6.807   6.099  0.0729  0.1801 -0.4321
21073SOL     OW65212   5.241   7.033   0.812  0.2345 -0.8627 -0.3869
21073SOL    HW165213   5.241   6.954   0.757  0.3863 -0.2275 -1.3262
21073SOL    HW265214   5.249   7.000   0.901  1.0796 -1.8872 -0.8168
21074SOL     OW65215   8.147   6.415   3.477 -0.2146 -0.1494 -0.0638
21074SOL    HW165216   8.064   6.402   3.431 -0.5083  1.0245  0.0981
21074SOL    HW265217   8.209   6.357   3.432 -1.1328 -1.1505 -0.0990
21075SOL     OW65218   5.132   5.830   4.180 -0.2522 -0.1486 -0.0163
21075SOL    HW165219   5.182   5.891   4.126  0.0772  0.3920  0.8578
21075SOL    HW265220   5.150   5.859   4.270 -0.9289 -0.8963  0.3700
21076SOL     OW65221   7.196   7.889   6.669  0.0924 -0.3571  0.3771
21076SOL    HW165222   7.196   7.799   6.636  3.2151 -0.1332 -0.6060
21076SOL    HW265223   7.200   7.880   6.764 -0.4172 -1.2452  0.3183
21077SOL     OW65224   2.214   2.091   0.680 -0.0834 -0.2609  0.0043
21077SOL    HW165225   2.157   2.125   0.749  1.3214 -0.8871  1.5135
21077SOL    HW265226   2.174   2.124   0.599 -3.3098 -1.7005  0.8479
21078SOL     OW65227   5.344   5.986   1.052  0.7010 -0.1286  0.4864
21078SOL    HW165228   5.433   6.007   1.024  0.5841 -1.0203 -0.6106
21078SOL    HW265229   5.294   6.066   1.036  0.7200 -0.4861 -1.5710
21079SOL     OW65230   4.925   5.177   0.406 -0.0464 -0.3904  0.0265
21079SOL    HW165231   4.888   5.143   0.325  0.0456 -0.3216 -0.0456
21079SOL    HW265232   4.942   5.270   0.388 -2.2890  0.2601  0.9128
21080SOL     OW65233   7.035   4.179   1.841 -0.3303  0.0567 -0.0017
21080SOL    HW165234   6.941   4.164   1.834 -0.0359 -1.3846 -1.7741
21080SOL    HW265235   7.074   4.100   1.803  1.5554  1.4670 -1.1375
21081SOL     OW65236   0.747   4.309   4.051 -0.2872  0.1153 -0.4058
21081SOL    HW165237   0.705   4.331   3.968  0.4692 -0.5080 -0.9625
21081SOL    HW265238   0.697   4.357   4.117  0.6235  2.6664 -1.4581
21082SOL     OW65239   4.888   6.483   6.104 -0.3846  0.7546 -0.3965
21082SOL    HW165240   4.905   6.463   6.012 -1.2822 -1.0530 -0.2087
21082SOL    HW265241   4.825   6.555   6.101  1.3514  2.3295 -1.1217
21083SOL     OW65242   2.900   5.535   8.160  0.1165  0.0182  0.3608
21083SOL    HW165243   2.982   5.506   8.120 -0.3303  0.2990 -0.7936
21083SOL    HW265244   2.884   5.621   8.121 -0.9442 -0.2160  0.2567
21084SOL     OW65245   2.140   1.251   7.500  0.2705 -0.0260 -0.3344
21084SOL    HW165246   2.052   1.282   7.479  0.2840 -0.2000 -0.6646
21084SOL    HW265247   2.139   1.236   7.595  0.1093  0.4840 -0.2565
21085SOL     OW65248   1.008   1.596   1.091  0.1112 -0.6293 -0.4906
21085SOL    HW165249   1.097   1.572   1.117  0.2703  0.9624  0.5613
21085SOL    HW265250   1.018   1.628   1.001  0.5409 -0.8025 -0.5098
21086SOL     OW65251   1.115   7.028   7.740 -0.2721  0.2234 -0.1038
21086SOL    HW165252   1.143   6.974   7.814  1.0151 -3.1450 -2.7892
21086SOL    HW265253   1.019   7.030   7.747 -0.3111 -1.6709  0.6635
21087SOL     OW65254   6.312   0.123   4.280  0.2867  0.2136 -0.2299
21087SOL    HW165255   6.284   0.043   4.326  1.1597 -1.3453 -2.2290
21087SOL    HW265256   6.406   0.112   4.269  0.3728  1.4160 -0.7698
21088SOL     OW65257   1.409   3.881   3.983  0.0239 -0.4987 -0.2056
21088SOL    HW165258   1.406   3.817   3.913  1.3277 -0.4943 -0.2967
21088SOL    HW265259   1.408   3.966   3.939  0.9765 -0.4972 -0.2438
21089SOL     OW65260   0.006   7.823   1.989  0.3843 -0.3574  0.0618
21089SOL    HW165261   0.097   7.797   2.007 -0.3717 -2.1254  1.7526
21089SOL    HW265262  -0.031   7.749   1.942 -0.5580 -0.3158  0.7032
21090SOL     OW65263   5.512   7.452   2.253 -0.3047 -0.0823 -0.1708
21090SOL    HW165264   5.498   7.377   2.196  0.2360  0.3641 -0.9097
21090SOL    HW265265   5.548   7.520   2.195  0.5855  0.2689  0.7543
21091SOL     OW65266   1.665   8.569   4.214 -0.0052 -0.1172 -0.3195
21091SOL    HW165267   1.649   8.662   4.199  1.4228  0.5631  1.8831
21091SOL    HW265268   1.760   8.559   4.208 -0.0512 -1.2107  0.4642
21092SOL     OW65269   6.708   3.175   6.946 -0.0891  0.5551 -0.1764
21092SOL    HW165270   6.786   3.125   6.920 -0.3821  0.2824 -0.5369
21092SOL    HW265271   6.741   3.241   7.008  0.1202 -0.8866  1.3165
21093SOL     OW65272   3.318   6.109   7.776  0.3461  0.0651  0.0397
21093SOL    HW165273   3.343   6.178   7.715  0.7150  0.3800  0.5378
21093SOL    HW265274   3.304   6.155   7.859 -0.7674 -0.2692  0.0473
21094SOL     OW65275   1.173   8.041   6.656 -0.5357  0.2445  0.3809
21094SOL    HW165276   1.106   8.008   6.596  1.2561 -2.7926 -0.1549
21094SOL    HW265277   1.234   8.088   6.599 -0.4118 -0.0067  0.3052
21095SOL     OW65278   2.493   1.153   5.070  0.6719  1.1808  0.0818
21095SOL    HW165279   2.499   1.113   4.983  2.1049 -0.8089  1.0153
21095SOL    HW265280   2.582   1.179   5.090  0.1983  2.4500  0.6318
21096SOL     OW65281   1.214   0.867   1.410 -0.7109  0.1496  0.5928
21096SOL    HW165282   1.152   0.794   1.415  1.0065 -1.6247 -1.8693
21096SOL    HW265283   1.182   0.919   1.336 -0.0488 -0.0189  0.1836
21097SOL     OW65284   6.572   8.076   3.841  0.0197 -0.0969 -0.4376
21097SOL    HW165285   6.580   8.084   3.936 -0.0725 -3.1488 -0.0844
21097SOL    HW265286   6.658   8.045   3.813  0.7129  2.6779 -1.7075
21098SOL     OW65287   1.445   7.597   4.715  0.1507  0.4494  0.0859
21098SOL    HW165288   1.384   7.525   4.698  1.0910 -0.1349 -0.8853
21098SOL    HW265289   1.433   7.616   4.808 -0.0911 -0.9771  0.3729
21099SOL     OW65290   2.415   0.020   0.961 -0.0957 -0.3685  0.5809
21099SOL    HW165291   2.337   0.004   0.908  1.3346 -1.2032 -1.3479
21099SOL    HW265292   2.446   0.106   0.933 -0.1229 -0.1830  1.1104
21100SOL     OW65293   1.147   7.977   7.203 -0.2173 -0.0412  0.7052
21100SOL    HW165294   1.077   7.998   7.265  0.4690 -0.1727  1.5403
21100SOL    HW265295   1.199   8.057   7.196  0.7224 -0.5438  1.6683
21101SOL     OW65296   8.877   1.813   2.395  0.2545 -0.4301 -0.2178
21101SOL    HW165297   8.800   1.865   2.417  1.3311  0.1516  2.5912
21101SOL    HW265298   8.842   1.736   2.350 -1.6199  1.2960 -1.9165
21102SOL     OW65299   3.513   3.978   0.336 -0.0775 -1.2775  0.1312
21102SOL    HW165300   3.524   3.932   0.419 -0.3927 -1.9067 -0.1672
21102SOL    HW265301   3.515   4.071   0.359  3.2957 -1.3040  0.4270
21103SOL     OW65302   4.600   4.787   2.512  0.0989 -0.1870 -0.0336
21103SOL    HW165303   4.658   4.823   2.579 -0.3659  0.6115 -0.0554
21103SOL    HW265304   4.527   4.749   2.560  1.8892 -3.7410  0.2095
21104SOL     OW65305   6.052   3.744   5.220  0.4494 -0.7952 -0.5224
21104SOL    HW165306   6.090   3.674   5.273  0.9524 -0.2265 -0.1165
21104SOL    HW265307   6.018   3.699   5.142  0.1684 -1.5729  0.0295
21105SOL     OW65308   1.983   0.427   5.886  0.4305 -0.2051  0.4169
21105SOL    HW165309   1.919   0.356   5.887 -0.5421  0.6465  1.5140
21105SOL    HW265310   2.067   0.383   5.900 -0.1367 -1.1497  0.9978
21106SOL     OW65311   8.027   7.954   8.148  0.0082 -0.0410  0.0437
21106SOL    HW165312   8.048   7.860   8.146 -2.4713 -0.6464 -1.3573
21106SOL    HW265313   7.952   7.960   8.208 -0.0864  1.0076 -0.1762
21107SOL     OW65314   8.766   8.236   3.103  0.1711 -0.6130  0.0123
21107SOL    HW165315   8.752   8.258   3.011 -0.4494 -1.4140 -0.0982
21107SOL    HW265316   8.846   8.283   3.127  1.8588 -2.4437 -1.6530
21108SOL     OW65317   0.901   7.197   0.188  0.2573 -0.0898  0.3857
21108SOL    HW165318   0.888   7.161   0.275  0.5607  0.1284  0.5233
21108SOL    HW265319   0.942   7.126   0.138 -0.0394 -0.2596  0.3799
21109SOL     OW65320   8.410   4.240   2.718 -0.1756 -0.0108 -0.6522
21109SOL    HW165321   8.448   4.153   2.734 -2.6734 -1.5770 -2.4675
21109SOL    HW265322   8.478   4.301   2.745  1.8816 -2.5286  0.2873
21110SOL     OW65323   7.578   8.894   6.095 -0.3113 -0.1546 -0.0657
21110SOL    HW165324   7.668   8.861   6.097  0.0461  0.6375 -1.6769
21110SOL    HW265325   7.545   8.878   6.184  1.7170  0.3531  0.8552
21111SOL     OW65326   7.163   8.860   5.215 -0.2300  0.5003  0.4757
21111SOL    HW165327   7.165   8.948   5.253  1.0932  0.3505  0.7928
21111SOL    HW265328   7.175   8.802   5.290  1.8023  0.1737 -0.0391
21112SOL     OW65329   3.562   4.090   1.070 -0.6872  0.1512 -0.4251
21112SOL    HW165330   3.620   4.155   1.108  0.5004 -0.5585 -0.9534
21112SOL    HW265331   3.615   4.047   1.003 -0.8810 -2.4382  0.9559
21113SOL     OW65332   6.544   0.393   1.803  0.0465  0.6195  0.1918
21113SOL    HW165333   6.576   0.387   1.893 -1.3125 -0.7563  0.6365
21113SOL    HW265334   6.614   0.355   1.750  0.0186 -0.4891  0.9186
21114SOL     OW65335   6.107   3.028   4.484  0.2066  0.3596 -0.2140
21114SOL    HW165336   6.104   3.089   4.410 -2.3269 -0.2482 -0.7208
21114SOL    HW265337   6.110   2.941   4.444 -0.8463  0.0365  0.3632
21115SOL     OW65338   8.301   4.586   2.899 -0.1025  0.4494  0.4586
21115SOL    HW165339   8.296   4.682   2.907 -0.2200  0.3364  2.1228
21115SOL    HW265340   8.265   4.568   2.812  4.0214  2.1890 -1.8835
21116SOL     OW65341   1.892   2.555   5.526  0.3859 -0.5713 -0.1360
21116SOL    HW165342   1.945   2.513   5.458  1.0001 -0.4094  0.2325
21116SOL    HW265343   1.857   2.482   5.577  0.0982 -0.6859 -0.4897
21117SOL     OW65344   6.574   5.500   4.374  0.4590  0.2186 -0.2675
21117SOL    HW165345   6.515   5.511   4.449  1.0036  0.3783  0.1524
21117SOL    HW265346   6.573   5.406   4.356 -0.0635  0.2437 -0.3863
21118SOL     OW65347   2.515   8.579   8.621  0.6494  0.5171  0.3275
21118SOL    HW165348   2.589   8.586   8.561 -1.3804  0.4579 -2.4196
21118SOL    HW265349   2.496   8.669   8.647  2.0626  0.4657  1.6309
21119SOL     OW65350   6.578   4.127   6.762  0.0492  0.2892  0.5749
21119SOL    HW165351   6.509   4.131   6.828  0.8776 -0.1567  1.5021
21119SOL    HW265352   6.642   4.192   6.791  0.8708 -0.5781  0.7728
21120SOL     OW65353   8.012   4.764   8.619  0.0686 -0.5877  0.3396
21120SOL    HW165354   8.105   4.752   8.640 -0.0815 -1.0238  0.7627
21120SOL    HW265355   7.965   4.729   8.695 -0.4496 -0.7463 -0.0488
21121SOL     OW65356   2.914   1.436   7.948 -0.0313 -0.5121 -0.1039
21121SOL    HW165357   2.930   1.375   8.020 -0.6309  1.6589  2.0246
21121SOL    HW265358   2.825   1.417   7.920  0.1528 -1.2889 -0.1832
21122SOL     OW65359   8.738   1.926   4.056  0.4045  0.2005 -0.3300
21122SOL    HW165360   8.643   1.939   4.048  0.0006 -2.0850 -0.0029
21122SOL    HW265361   8.763   1.979   4.131 -0.1791  2.5041 -1.6461
21123SOL     OW65362   8.707   6.712   6.876  0.1929 -0.2783  0.8489
21123SOL    HW165363   8.631   6.769   6.863  0.0060 -0.3958  1.3992
21123SOL    HW265364   8.715   6.704   6.971  2.3384  1.6589  0.9346
21124SOL     OW65365   7.565   4.643   2.177  0.1020  0.2126  0.4081
21124SOL    HW165366   7.544   4.569   2.120  0.6204  1.0229 -0.8897
21124SOL    HW265367   7.479   4.680   2.200 -0.1410  1.6113 -2.2951
21125SOL     OW65368   1.761   1.313   1.564 -0.0610  0.2064 -0.1274
21125SOL    HW165369   1.794   1.296   1.652  0.9169 -2.0389 -0.8767
21125SOL    HW265370   1.771   1.408   1.554  1.0023  0.3467  1.6937
21126SOL     OW65371   3.243   0.829   6.144 -0.0713  0.4180  0.4281
21126SOL    HW165372   3.222   0.839   6.052  0.7529  0.1216  0.1953
21126SOL    HW265373   3.300   0.903   6.164 -0.6373  0.7555  0.8357
21127SOL     OW65374   4.115   5.860   5.965  0.6431  0.1822 -0.2509
21127SOL    HW165375   4.079   5.929   5.909  0.6068  0.3667 -0.0027
21127SOL    HW265376   4.038   5.815   6.000  0.6653 -0.8214 -1.4252
21128SOL     OW65377   5.252   8.410   5.584  0.1863  0.2091  0.4926
21128SOL    HW165378   5.179   8.471   5.595 -1.1589 -1.4459  1.1870
21128SOL    HW265379   5.330   8.465   5.591 -0.9338  1.7133  1.9497
21129SOL     OW65380   8.867   6.248   8.684  0.3955 -0.0225 -0.0128
21129SOL    HW165381   8.881   6.297   8.765  2.7377 -0.8801  0.1629
21129SOL    HW265382   8.907   6.302   8.616  0.0936 -0.1853 -0.3264
21130SOL     OW65383   3.806   2.805   5.843  0.1171 -0.3078  0.2128
21130SOL    HW165384   3.853   2.724   5.823  0.3627 -0.2696  0.6220
21130SOL    HW265385   3.796   2.804   5.938  0.1871  0.1822  0.2276
21131SOL     OW65386   1.545   3.519   4.053 -0.2032 -0.0738 -0.0125
21131SOL    HW165387   1.462   3.528   4.099 -0.2743  1.1377 -0.3476
21131SOL    HW265388   1.572   3.428   4.070 -2.4378 -1.0637 -1.3556
21132SOL     OW65389   1.488   4.856   2.656  0.6597 -0.9422 -0.2320
21132SOL    HW165390   1.582   4.857   2.674  0.7390 -1.8606 -0.5287
21132SOL    HW265391   1.452   4.796   2.721  0.2532 -0.4787 -0.0269
21133SOL     OW65392   1.137   3.787   2.040  0.3472  0.4572 -0.3337
21133SOL    HW165393   1.080   3.793   1.964 -0.8396  1.1190  0.5878
21133SOL    HW265394   1.220   3.825   2.011  0.1429  0.0456 -1.4987
21134SOL     OW65395   1.991   2.607   4.428 -0.1227  0.3585 -0.1568
21134SOL    HW165396   1.937   2.596   4.350 -0.0338 -0.7165 -0.0844
21134SOL    HW265397   1.985   2.700   4.449 -1.9774  0.2546 -0.1072
21135SOL     OW65398   7.194   0.250   1.112 -0.1451 -0.2351 -0.6720
21135SOL    HW165399   7.142   0.205   1.179 -1.9800  0.5883 -1.4661
21135SOL    HW265400   7.142   0.328   1.090  2.0613  1.3368 -0.6304
21136SOL     OW65401   8.824   1.527   1.541  0.2007 -0.7125 -0.6823
21136SOL    HW165402   8.738   1.551   1.507  0.5363 -0.4133 -1.3558
21136SOL    HW265403   8.806   1.480   1.622 -0.5195  1.8419  0.7524
21137SOL     OW65404   3.368   1.894   5.854  1.1000 -0.1189 -0.1329
21137SOL    HW165405   3.319   1.854   5.782  0.8287  1.1601 -0.6813
21137SOL    HW265406   3.460   1.888   5.826  0.9547  0.8852 -0.8679
21138SOL     OW65407   5.580   1.637   4.732  0.6899 -0.1315  0.8143
21138SOL    HW165408   5.521   1.570   4.767  0.4147  0.0297  0.6652
21138SOL    HW265409   5.526   1.685   4.669  1.6370 -1.5081 -1.1485
21139SOL     OW65410   7.121   2.172   2.459  0.2409  0.0062  0.1817
21139SOL    HW165411   7.205   2.127   2.448 -0.2798 -0.9257 -0.1182
21139SOL    HW265412   7.062   2.128   2.398 -1.1336 -1.1231  2.1804
21140SOL     OW65413   7.156   6.530   7.096  0.1631 -0.2134  0.0871
21140SOL    HW165414   7.236   6.579   7.113  0.2559 -0.0237 -0.8219
21140SOL    HW265415   7.118   6.514   7.183  2.2871 -2.2280  0.7170
21141SOL     OW65416   6.499   2.839   3.702  0.4091  0.2679  0.9893
21141SOL    HW165417   6.416   2.863   3.742 -0.4783 -1.8135  0.5626
21141SOL    HW265418   6.518   2.910   3.642  1.1487  2.8568  4.0539
21142SOL     OW65419   5.043   5.114   6.183  0.3604 -0.0131  0.5424
21142SOL    HW165420   5.019   5.187   6.241  0.8832  0.9974 -0.4693
21142SOL    HW265421   4.974   5.049   6.195 -1.9831  2.0251 -0.9410
21143SOL     OW65422   7.547   2.656   8.722  0.3934 -0.5421 -0.3475
21143SOL    HW165423   7.480   2.682   8.785 -0.0578  1.6887 -1.6241
21143SOL    HW265424   7.524   2.703   8.642  1.5395 -2.4442 -1.8919
21144SOL     OW65425   3.374   4.579   2.228 -0.0179 -0.2566  0.3856
21144SOL    HW165426   3.412   4.505   2.181 -0.4434 -0.1313 -0.1718
21144SOL    HW265427   3.301   4.541   2.278  0.3103 -0.3570  0.7904
21145SOL     OW65428   6.072   3.562   2.212 -0.1704  0.2093  0.1462
21145SOL    HW165429   6.006   3.595   2.152 -0.1587 -1.4592 -0.8113
21145SOL    HW265430   6.142   3.529   2.156 -0.8169 -2.8008  0.9308
21146SOL     OW65431   3.142   5.950   7.523  0.0777  0.0764 -0.2263
21146SOL    HW165432   3.173   6.003   7.596  0.3733 -1.3218  0.7035
21146SOL    HW265433   3.204   5.967   7.452  0.5943  0.4099  0.2972
21147SOL     OW65434   0.060   8.870   8.838 -0.2886  0.2603  0.3870
21147SOL    HW165435   0.007   8.802   8.879  0.6795  0.7614  2.6538
21147SOL    HW265436   0.003   8.946   8.835 -0.3042  0.2878  1.1080
21148SOL     OW65437   0.599   7.492   1.060 -0.0109 -0.5869 -0.1728
21148SOL    HW165438   0.526   7.461   1.113  0.1030 -0.8284 -0.1577
21148SOL    HW265439   0.636   7.413   1.020 -0.0121 -0.4233 -0.5064
21149SOL     OW65440   1.402   0.240   6.467  0.2395 -0.7609  0.0388
21149SOL    HW165441   1.478   0.211   6.518  0.5823  1.1341  0.6822
21149SOL    HW265442   1.439   0.289   6.394 -0.3368  0.1789  0.3550
21150SOL     OW65443   3.374   4.001   0.654  0.2200  0.6057  0.0827
21150SOL    HW165444   3.300   4.014   0.713 -0.9095  1.7862 -1.5117
21150SOL    HW265445   3.450   3.997   0.712 -1.0438 -0.7921  1.7949
21151SOL     OW65446   6.822   7.232   8.448  0.2467  0.5554  0.5514
21151SOL    HW165447   6.740   7.234   8.497  0.5959  1.3860  1.1169
21151SOL    HW265448   6.888   7.210   8.513  0.6253  1.0215  0.3273
21152SOL     OW65449   1.007   5.310   5.167  0.2571  0.1147  0.1387
21152SOL    HW165450   1.087   5.356   5.193  0.4687 -0.1957  0.0413
21152SOL    HW265451   0.984   5.346   5.082  0.0840  0.4720  0.3376
21153SOL     OW65452   7.469   6.909   6.704  0.5021 -0.0689 -0.1762
21153SOL    HW165453   7.489   6.992   6.746  1.4581 -0.8431  0.9794
21153SOL    HW265454   7.488   6.843   6.772 -0.0139 -1.2325 -1.1297
21154SOL     OW65455   1.134   8.084   4.466 -0.0466 -0.1268 -0.4099
21154SOL    HW165456   1.227   8.079   4.445  0.0117 -2.4852  0.1486
21154SOL    HW265457   1.117   8.008   4.521 -1.9114  1.3347  1.2311
21155SOL     OW65458   3.166   4.479   5.149 -0.0503  0.9576  0.2111
21155SOL    HW165459   3.181   4.519   5.235 -0.0393  1.2698  0.0653
21155SOL    HW265460   3.071   4.468   5.145  0.0452 -0.2634  0.7950
21156SOL     OW65461   2.176   0.130   8.894 -0.9433 -0.5396 -0.0183
21156SOL    HW165462   2.115   0.199   8.920  0.3411  0.5482  0.1945
21156SOL    HW265463   2.182   0.139   8.799 -2.2821 -1.6852 -0.2540
21157SOL     OW65464   3.391   2.236   0.230  0.3627  0.1004 -0.7345
21157SOL    HW165465   3.379   2.290   0.309 -0.7875  1.1285 -1.5692
21157SOL    HW265466   3.418   2.151   0.264  0.1535  0.5894  0.7642
21158SOL     OW65467   7.947   4.818   1.590 -0.2469 -0.1913 -0.0605
21158SOL    HW165468   7.953   4.854   1.679 -1.0124  2.2287 -0.8993
21158SOL    HW265469   7.853   4.803   1.577  0.0929 -3.4773  0.5296
21159SOL     OW65470   2.671   7.835   3.063 -0.0571  0.7274 -0.0139
21159SOL    HW165471   2.697   7.770   3.129  0.3928  0.3245 -0.5848
21159SOL    HW265472   2.578   7.851   3.081 -0.2655 -0.3384 -0.0914
21160SOL     OW65473   5.066   0.715   5.309 -0.4354 -0.6838  0.1013
21160SOL    HW165474   5.120   0.641   5.282  0.9149  0.1756  0.3290
21160SOL    HW265475   5.126   0.791   5.304 -1.6273  0.3037  0.3656
21161SOL     OW65476   1.072   4.063   8.067 -0.1833  0.2257 -0.4474
21161SOL    HW165477   1.018   4.038   7.992 -0.1436 -0.3712 -0.2847
21161SOL    HW265478   1.013   4.114   8.123 -0.8061 -1.0281  0.0775
21162SOL     OW65479   3.211   0.319   8.686  0.0189  0.0711  0.1769
21162SOL    HW165480   3.271   0.250   8.715  1.2546  1.9584  2.4360
21162SOL    HW265481   3.138   0.271   8.647  0.6550 -2.5505  1.8993
21163SOL     OW65482   7.304   7.276   2.179  0.5564  0.1608 -0.6543
21163SOL    HW165483   7.252   7.200   2.205  2.8481 -1.4902 -0.5947
21163SOL    HW265484   7.348   7.304   2.259  1.2392  0.2849 -1.0633
21164SOL     OW65485   6.712   4.501   5.246 -0.4651  0.5195  0.8331
21164SOL    HW165486   6.755   4.583   5.271 -1.2261  1.5591 -1.0448
21164SOL    HW265487   6.768   4.432   5.282  0.9484  1.8454  1.2829
21165SOL     OW65488   1.367   5.538   6.811 -0.8001  0.9050  0.6220
21165SOL    HW165489   1.380   5.630   6.835 -1.5006  0.5152  2.6904
21165SOL    HW265490   1.431   5.490   6.863 -0.9233  0.1563  0.1010
21166SOL     OW65491   0.736   2.258   0.080 -0.1171  0.2065 -0.1374
21166SOL    HW165492   0.677   2.182   0.080 -2.2152  1.7317  0.8701
21166SOL    HW265493   0.688   2.325   0.128  2.4238  1.6263  0.5585
21167SOL     OW65494   0.774   6.736   0.412 -0.1918  0.8470  0.5239
21167SOL    HW165495   0.772   6.652   0.366  1.2721  1.6992 -1.1997
21167SOL    HW265496   0.766   6.802   0.343  1.1948  2.1734  1.5664
21168SOL     OW65497   6.729   7.602   4.958 -0.1990 -0.1517  0.2900
21168SOL    HW165498   6.746   7.617   5.051 -1.6311 -0.8546  0.6879
21168SOL    HW265499   6.702   7.511   4.953 -0.9060  0.0974 -0.7023
21169SOL     OW65500   6.193   1.537   7.244  0.5732  0.0851 -0.5933
21169SOL    HW165501   6.245   1.524   7.324  1.1826 -0.8017 -1.1120
21169SOL    HW265502   6.147   1.620   7.258  1.5522  0.5137  0.1977
21170SOL     OW65503   8.123   1.297   6.382  0.7209 -0.1252  0.0525
21170SOL    HW165504   8.108   1.388   6.405 -0.8573 -0.6304  1.1874
21170SOL    HW265505   8.072   1.283   6.303  1.1178  0.0209 -0.2300
21171SOL     OW65506   2.712   4.834   5.036 -0.2218  0.2450 -0.0419
21171SOL    HW165507   2.683   4.747   5.063 -0.0279  0.3863  0.6562
21171SOL    HW265508   2.694   4.889   5.112  0.8342  0.5541 -0.0007
21172SOL     OW65509   2.100   0.829   2.630 -0.3950 -0.4261 -0.0690
21172SOL    HW165510   2.101   0.855   2.538 -1.7320  0.5663  0.1552
21172SOL    HW265511   2.192   0.812   2.652 -0.1263 -1.3230 -1.7399
21173SOL     OW65512   7.466   0.450   5.442 -0.4552 -0.0137  0.2409
21173SOL    HW165513   7.514   0.462   5.360 -0.0646  0.8863  0.5905
21173SOL    HW265514   7.523   0.396   5.496  0.3382  1.3016  0.7684
21174SOL     OW65515   0.446   1.218   1.615 -0.2961 -0.0614 -0.2935
21174SOL    HW165516   0.383   1.153   1.584 -1.8258  1.9319 -1.5963
21174SOL    HW265517   0.422   1.299   1.569  1.5290  1.4454  1.2419
21175SOL     OW65518   0.970   7.972   8.087  0.1472  0.0200 -0.5484
21175SOL    HW165519   0.987   7.879   8.100  1.2115  0.5040  2.2631
21175SOL    HW265520   0.957   8.006   8.176 -1.1932  2.3814 -1.5792
21176SOL     OW65521   5.642   1.033   6.966 -0.2028  0.1416 -0.7446
21176SOL    HW165522   5.720   1.082   6.939 -0.7973  1.3948 -0.2536
21176SOL    HW265523   5.659   1.008   7.057  0.3421 -1.1125 -1.1616
21177SOL     OW65524   1.308   6.634   0.159  0.5522 -0.2198  0.1270
21177SOL    HW165525   1.373   6.571   0.190 -0.6268 -0.0648  3.3850
21177SOL    HW265526   1.224   6.588   0.168 -0.0202  0.3797 -1.7179
21178SOL     OW65527   6.276   6.859   1.965 -0.5035 -0.2275  0.5027
21178SOL    HW165528   6.232   6.893   1.888  0.3588 -0.0466  0.0799
21178SOL    HW265529   6.336   6.792   1.931  1.2769  1.1522  0.7466
21179SOL     OW65530   1.758   1.048   3.362 -0.3627  0.3955 -0.3402
21179SOL    HW165531   1.700   1.032   3.287 -0.4934  2.0799 -0.6287
21179SOL    HW265532   1.843   1.065   3.323  0.9709 -3.8643  0.1189
21180SOL     OW65533   3.584   0.673   1.177  0.4532 -0.0933 -0.1980
21180SOL    HW165534   3.534   0.735   1.124 -1.2420  1.0190  2.4913
21180SOL    HW265535   3.676   0.699   1.165 -0.0547  1.4718 -0.9073
21181SOL     OW65536   5.812   5.407   2.641  0.2230 -0.0888  0.1000
21181SOL    HW165537   5.869   5.477   2.674 -1.3916  0.9714  0.8309
21181SOL    HW265538   5.851   5.326   2.675  0.9242  0.6501  1.1286
21182SOL     OW65539   6.918   4.152   8.674  0.4009 -0.0022  0.1373
21182SOL    HW165540   6.921   4.102   8.593  0.2070  0.3751 -0.1057
21182SOL    HW265541   6.883   4.091   8.739 -0.3665 -0.0272 -0.2806
21183SOL     OW65542   6.167   8.146   0.688 -0.3055 -0.5035 -0.3278
21183SOL    HW165543   6.217   8.205   0.743 -0.1041 -1.1047  0.1506
21183SOL    HW265544   6.097   8.200   0.652 -0.1108  0.0291  0.0808
21184SOL     OW65545   6.943   8.008   4.189  0.2553  0.1836 -0.2546
21184SOL    HW165546   6.999   7.932   4.206 -0.4832  0.1909  2.8935
21184SOL    HW265547   6.993   8.061   4.128  2.4657 -1.1045  0.3034
21185SOL     OW65548   0.836   4.617   4.112  0.0129  0.4888  0.5891
21185SOL    HW165549   0.900   4.686   4.133 -1.7945  2.4981 -0.1571
21185SOL    HW265550   0.812   4.581   4.197  1.1318  0.6409  0.9861
21186SOL     OW65551   4.646   0.480   3.227  0.4667  0.3684 -0.3147
21186SOL    HW165552   4.699   0.558   3.209  1.8684 -0.7151 -1.1392
21186SOL    HW265553   4.556   0.511   3.224  1.0116  2.1480  0.3802
21187SOL     OW65554   5.799   4.626   6.335 -0.3942 -0.6690  0.9556
21187SOL    HW165555   5.858   4.700   6.321 -0.7533 -0.4766  0.4442
21187SOL    HW265556   5.713   4.665   6.351 -0.5349 -0.9698  0.9455
21188SOL     OW65557   5.056   5.275   6.915  0.0481 -0.4946  0.0882
21188SOL    HW165558   4.986   5.333   6.943  0.9576  0.4545  0.4344
21188SOL    HW265559   5.090   5.237   6.996  0.6113 -0.1489  0.0196
21189SOL     OW65560   0.399   2.187   1.707 -0.0629  0.5680  0.3125
21189SOL    HW165561   0.389   2.093   1.689 -1.2060  0.8822 -0.8329
21189SOL    HW265562   0.319   2.211   1.753  0.4429  0.9127  1.0400
21190SOL     OW65563   6.358   4.958   4.135  0.3098 -0.5149 -0.1329
21190SOL    HW165564   6.364   4.947   4.040 -0.9496 -0.1475 -0.2778
21190SOL    HW265565   6.322   5.046   4.146  0.2986 -0.6187  0.6805
21191SOL     OW65566   2.534   5.765   4.838 -0.3449 -0.3439  0.2562
21191SOL    HW165567   2.604   5.830   4.826 -0.0654 -0.6024  0.5094
21191SOL    HW265568   2.453   5.817   4.836 -0.1172  0.0209  0.5376
21192SOL     OW65569   8.186   5.936   7.432  0.3486 -0.8832  0.5503
21192SOL    HW165570   8.281   5.948   7.426  0.1884 -0.3333 -2.2968
21192SOL    HW265571   8.152   6.023   7.452  0.3991 -1.0473  1.4012
21193SOL     OW65572   8.333   6.980   3.968  0.9334 -0.0639 -0.2654
21193SOL    HW165573   8.422   7.015   3.975  0.9919  0.4994 -2.9015
21193SOL    HW265574   8.329   6.942   3.880 -1.3815 -0.2358 -0.1370
21194SOL     OW65575   2.072   3.569   7.248 -0.6722  0.8885 -0.3427
21194SOL    HW165576   2.076   3.508   7.322 -1.5803  0.9764 -0.2062
21194SOL    HW265577   2.137   3.635   7.269  0.0962  0.1443 -0.3328
21195SOL     OW65578   0.155   2.797   0.125 -0.5553 -0.0601 -0.2204
21195SOL    HW165579   0.202   2.736   0.182 -0.0852 -0.2420 -0.7932
21195SOL    HW265580   0.147   2.877   0.176 -0.1080 -0.2092  0.0837
21196SOL     OW65581   8.618   6.921   1.701  0.0985  0.4856 -0.2778
21196SOL    HW165582   8.640   6.978   1.629 -0.4101  0.3808 -0.5196
21196SOL    HW265583   8.545   6.868   1.669  0.7949 -0.5546 -0.1949
21197SOL     OW65584   4.234   2.888   5.188 -0.1449 -0.1499  0.1468
21197SOL    HW165585   4.193   2.871   5.273 -1.4212  2.2223  0.0914
21197SOL    HW265586   4.165   2.928   5.135  0.9471 -0.4875 -1.6393
21198SOL     OW65587   0.058   6.522   1.799  0.3886  0.5414  0.0885
21198SOL    HW165588   0.041   6.616   1.808  2.3736  0.9195  0.2406
21198SOL    HW265589   0.124   6.516   1.729  0.2589 -0.7513  0.0554
21199SOL     OW65590   0.074   1.180   4.263 -0.1393  0.5035 -0.4892
21199SOL    HW165591   0.099   1.222   4.345 -0.7212  0.0271 -0.0669
21199SOL    HW265592   0.097   1.245   4.196  2.5401 -0.0249 -0.1928
21200SOL     OW65593   1.165   4.371   7.315  0.1270 -0.7679 -0.1464
21200SOL    HW165594   1.117   4.292   7.341 -0.7436 -1.0545 -2.3994
21200SOL    HW265595   1.113   4.409   7.245 -0.1871  2.6092  1.6988
21201SOL     OW65596   1.552   2.364   6.534  0.0766  0.4019  0.8064
21201SOL    HW165597   1.494   2.418   6.480  2.9544  1.4707 -1.4329
21201SOL    HW265598   1.599   2.426   6.589  1.5330 -0.0413  0.1093
21202SOL     OW65599   2.828   3.253   0.136  0.6599 -0.7663 -0.2400
21202SOL    HW165600   2.808   3.296   0.220 -1.7838  0.9438 -1.5776
21202SOL    HW265601   2.907   3.298   0.105 -0.4084  1.0887 -0.4155
21203SOL     OW65602   8.317   7.856   4.551  0.1311 -0.2916 -0.3186
21203SOL    HW165603   8.334   7.857   4.457  1.9443 -1.7748 -0.0606
21203SOL    HW265604   8.392   7.901   4.590  0.3122 -1.2837  0.5125
21204SOL     OW65605   5.561   6.185   7.903  0.6361  0.2725  0.1056
21204SOL    HW165606   5.479   6.227   7.877  0.2211 -1.2810 -1.2127
21204SOL    HW265607   5.536   6.119   7.967  0.7847 -0.5100 -0.6306
21205SOL     OW65608   6.636   2.486   7.981  0.5632  0.5933  0.4288
21205SOL    HW165609   6.591   2.545   7.921  1.2382  1.7319  1.0014
21205SOL    HW265610   6.666   2.414   7.926 -1.4040  0.0974 -0.0608
21206SOL     OW65611   0.238   2.444   4.363  0.0975  0.4210  0.0179
21206SOL    HW165612   0.203   2.360   4.392 -0.1683  0.4031 -0.3516
21206SOL    HW265613   0.320   2.454   4.412  0.1699 -0.0896  0.0058
21207SOL     OW65614   5.715   0.971   3.019  0.3950 -0.1944  0.0187
21207SOL    HW165615   5.670   0.945   2.939 -1.6757  2.9944 -0.0388
21207SOL    HW265616   5.807   0.954   3.002 -0.0776 -0.4604 -2.6979
21208SOL     OW65617   3.662   7.883   2.461  0.1666 -0.4454 -0.1387
21208SOL    HW165618   3.686   7.975   2.470 -1.7422  0.1296 -0.3868
21208SOL    HW265619   3.720   7.849   2.393  0.1256  0.8945 -0.8757
21209SOL     OW65620   5.191   2.400   1.760 -0.1451  0.7221 -0.3831
21209SOL    HW165621   5.272   2.424   1.806 -0.2356 -0.3119  0.3628
21209SOL    HW265622   5.188   2.304   1.766 -1.8997  0.7950  0.4245
21210SOL     OW65623   3.432   1.639   2.686  0.3228  0.5398  0.1239
21210SOL    HW165624   3.356   1.582   2.700  0.4896  0.2967  0.0546
21210SOL    HW265625   3.415   1.716   2.740  0.0639  0.4505  0.1699
21211SOL     OW65626   6.216   2.176   7.600  0.5783  0.4416  0.5677
21211SOL    HW165627   6.188   2.085   7.592 -0.1135  0.7971 -1.8593
21211SOL    HW265628   6.291   2.183   7.540  0.9995  1.3520  1.1788
21212SOL     OW65629   5.490   2.274   6.708  0.1413 -0.4799 -0.0614
21212SOL    HW165630   5.501   2.368   6.717 -0.0880 -0.4523 -0.0519
21212SOL    HW265631   5.455   2.262   6.619  1.0243 -0.6315 -0.4004
21213SOL     OW65632   1.767   3.702   0.317  0.9389  0.2874 -0.9416
21213SOL    HW165633   1.825   3.629   0.297  1.4684  0.9370 -1.8352
21213SOL    HW265634   1.740   3.688   0.408  3.2778  0.5085 -0.1677
21214SOL     OW65635   6.479   1.348   0.718  0.0138 -0.6740 -0.0148
21214SOL    HW165636   6.533   1.367   0.795 -0.4656 -2.6225  0.8521
21214SOL    HW265637   6.389   1.359   0.748 -0.1621  0.8286 -0.9793
21215SOL     OW65638   2.018   0.886   0.638 -0.2761  0.1138 -0.0069
21215SOL    HW165639   1.947   0.823   0.650 -0.5508  0.2016 -1.1279
21215SOL    HW265640   2.098   0.835   0.649 -0.4626  0.1971  2.2753
21216SOL     OW65641   3.627   8.105   1.171 -0.8216 -0.1834  0.0971
21216SOL    HW165642   3.662   8.063   1.092 -0.7560 -0.1936  0.1315
21216SOL    HW265643   3.679   8.067   1.243 -1.0817 -0.3978  0.1735
21217SOL     OW65644   6.402   4.495   1.826  0.1394  0.1700  0.1197
21217SOL    HW165645   6.365   4.537   1.904  0.1848  1.5320 -0.5548
21217SOL    HW265646   6.497   4.498   1.839  0.1256 -0.5721  0.4724
21218SOL     OW65647   1.042   2.233   3.321 -0.6781  0.2538 -0.6625
21218SOL    HW165648   0.975   2.240   3.253 -0.8584 -0.6572 -0.5947
21218SOL    HW265649   1.047   2.320   3.359 -0.4610  0.8287 -1.9504
21219SOL     OW65650   0.557   6.772   0.011  0.4243 -0.3650  0.4707
21219SOL    HW165651   0.488   6.779  -0.055 -1.5376  0.0031  2.4391
21219SOL    HW265652   0.510   6.762   0.094  2.6432  2.2290  2.2261
21220SOL     OW65653   3.440   6.886   7.771  0.7586 -0.1758 -0.4200
21220SOL    HW165654   3.447   6.799   7.732  2.1229 -0.4734  0.4355
21220SOL    HW265655   3.389   6.937   7.707 -0.4478 -1.6899 -0.7211
21221SOL     OW65656   7.533   2.036   0.677 -0.1627 -0.1655 -0.1704
21221SOL    HW165657   7.603   2.063   0.735 -0.1875  0.6899 -0.5269
21221SOL    HW265658   7.490   2.118   0.651 -0.5306 -0.5796 -0.9021
21222SOL     OW65659   8.840   2.109   4.224  0.0961  1.0520 -0.5416
21222SOL    HW165660   8.870   2.193   4.187 -0.0933  2.8736  2.9703
21222SOL    HW265661   8.745   2.119   4.231  0.1087  0.6876  0.1837
21223SOL     OW65662   2.423   4.635   3.989  0.1897  0.0962 -0.7184
21223SOL    HW165663   2.451   4.553   4.030  1.8927  0.6942 -0.6031
21223SOL    HW265664   2.494   4.658   3.929 -0.6930  1.0165 -1.4608
21224SOL     OW65665   5.296   4.351   4.912  0.4677  0.1449  0.0508
21224SOL    HW165666   5.322   4.331   4.822  1.0709 -1.9375  0.6472
21224SOL    HW265667   5.215   4.401   4.902  1.6269  1.8817 -1.6782
21225SOL     OW65668   6.369   7.587   1.420 -0.2343 -0.5284 -0.4275
21225SOL    HW165669   6.279   7.585   1.452 -0.2631 -0.3091 -0.4964
21225SOL    HW265670   6.402   7.498   1.436 -0.1861 -0.3705  0.4011
21226SOL     OW65671   3.527   6.097   1.854 -0.3264  0.1118 -0.7916
21226SOL    HW165672   3.583   6.128   1.925 -0.0160 -1.0993 -0.4866
21226SOL    HW265673   3.506   6.007   1.878 -0.3788 -0.2519 -2.1349
21227SOL     OW65674   7.127   6.777   4.858 -0.3733  0.2793 -0.4553
21227SOL    HW165675   7.223   6.772   4.857 -0.2405  1.5191  0.9305
21227SOL    HW265676   7.106   6.847   4.796 -0.3793  0.0593 -0.7021
21228SOL     OW65677   7.171   0.256   5.355 -0.3617 -1.0279  0.6393
21228SOL    HW165678   7.215   0.243   5.439  0.8184 -2.1052 -0.0996
21228SOL    HW265679   7.214   0.332   5.317 -2.9140  1.4093  2.2009
21229SOL     OW65680   3.572   0.241   3.966 -0.6219  0.6548  0.0957
21229SOL    HW165681   3.560   0.253   3.872  0.1213 -1.3644 -0.3037
21229SOL    HW265682   3.495   0.191   3.994 -1.0641  1.6288  0.6769
21230SOL     OW65683   2.982   5.196   3.490  0.5655  0.7243  0.0554
21230SOL    HW165684   3.027   5.189   3.574 -0.0033  0.5499  0.3473
21230SOL    HW265685   3.048   5.170   3.425  0.8122  0.2313  0.4994
21231SOL     OW65686   1.139   1.964   2.776  0.2657 -0.5999  0.1917
21231SOL    HW165687   1.204   1.937   2.840 -0.2433 -1.0862  0.5129
21231SOL    HW265688   1.119   2.055   2.800  1.7068 -0.0209 -0.6652
21232SOL     OW65689   2.341   7.466   0.398 -0.0480 -0.7834  1.0304
21232SOL    HW165690   2.375   7.552   0.374 -0.0502 -0.8767  0.6821
21232SOL    HW265691   2.417   7.408   0.397 -0.3004 -1.1307 -0.4152
21233SOL     OW65692   7.126   2.830   4.314 -0.5044  0.1636 -0.7008
21233SOL    HW165693   7.067   2.842   4.388  1.0283  1.1632  0.4294
21233SOL    HW265694   7.112   2.907   4.259  0.3407  0.8531  0.0240
21234SOL     OW65695   2.907   5.075   0.081  0.4071 -0.5391 -0.1161
21234SOL    HW165696   2.895   5.019   0.157 -0.1762 -0.5967 -0.2375
21234SOL    HW265697   2.950   5.153   0.114 -1.2754  0.1409  0.6013
21235SOL     OW65698   1.433   6.769   7.512 -0.1018 -0.1415  0.0079
21235SOL    HW165699   1.401   6.852   7.548  2.1992  0.3284  1.1889
21235SOL    HW265700   1.458   6.789   7.422 -0.1024  0.3048  0.1074
21236SOL     OW65701   6.385   6.494   0.956  0.2123  0.4223 -0.4057
21236SOL    HW165702   6.419   6.469   0.870 -0.5564  0.0211 -0.6099
21236SOL    HW265703   6.311   6.551   0.937  0.9487  1.5472  0.0332
21237SOL     OW65704   6.670   5.871   4.035 -0.2525  1.0111 -0.0454
21237SOL    HW165705   6.763   5.869   4.013 -0.6398  0.4565 -1.7602
21237SOL    HW265706   6.650   5.781   4.062 -0.3764  1.0394 -0.0431
21238SOL     OW65707   1.113   5.001   3.193  0.2329 -0.1457  0.2365
21238SOL    HW165708   1.087   5.004   3.285  1.4509  1.4412  0.5644
21238SOL    HW265709   1.190   4.944   3.192  0.3173 -0.0310  0.2228
21239SOL     OW65710   4.468   1.572   1.594  0.1552 -0.3337 -0.5990
21239SOL    HW165711   4.470   1.551   1.500  1.0010  0.6156 -0.8068
21239SOL    HW265712   4.530   1.510   1.633 -1.0714 -1.5383 -0.4614
21240SOL     OW65713   2.314   6.581   0.519 -0.3102 -0.0875  0.3507
21240SOL    HW165714   2.307   6.621   0.606 -0.7966 -0.7171  0.6139
21240SOL    HW265715   2.408   6.569   0.506 -0.1116  1.6214  0.0248
21241SOL     OW65716   3.814   8.185   8.197  0.3156  0.4643 -0.2433
21241SOL    HW165717   3.848   8.215   8.281  0.1527  1.9421 -0.6764
21241SOL    HW265718   3.727   8.149   8.217  0.9481 -0.7300  0.4414
21242SOL     OW65719   3.303   4.285   0.986 -1.0056  0.8370 -0.5155
21242SOL    HW165720   3.223   4.284   0.932 -0.9530  0.7008 -0.5902
21242SOL    HW265721   3.350   4.205   0.961  0.1222  1.8847 -1.9254
21243SOL     OW65722   6.482   3.117   6.233  0.7085 -0.9859  0.1531
21243SOL    HW165723   6.553   3.080   6.182  3.9161  2.5597  1.5854
21243SOL    HW265724   6.435   3.175   6.173  0.1710 -1.9050 -0.3302
21244SOL     OW65725   8.231   1.492   0.955  0.1069 -0.3333 -0.2415
21244SOL    HW165726   8.304   1.431   0.964  0.3156 -0.0422  0.0529
21244SOL    HW265727   8.225   1.508   0.861  1.5836  1.0278 -0.1442
21245SOL     OW65728   6.891   7.830   0.481 -0.0919  0.0018  0.3991
21245SOL    HW165729   6.832   7.887   0.531 -0.4303  0.1683 -0.1830
21245SOL    HW265730   6.903   7.753   0.537 -2.1605 -0.7856 -0.1400
21246SOL     OW65731   5.997   7.665   6.237  0.3066 -0.3892  0.5308
21246SOL    HW165732   5.986   7.625   6.323  1.5767  0.1434  0.9596
21246SOL    HW265733   6.083   7.635   6.207  0.7474  1.0087  0.3368
21247SOL     OW65734   7.796   2.950   3.572  0.5205 -0.1493  0.8682
21247SOL    HW165735   7.770   3.027   3.622 -0.2820  0.5149 -0.5140
21247SOL    HW265736   7.735   2.947   3.498  2.8693  0.0991 -1.2284
21248SOL     OW65737   3.820   8.371   0.613  0.1039 -0.1535 -0.4977
21248SOL    HW165738   3.869   8.318   0.550  0.3666 -0.1159 -0.3274
21248SOL    HW265739   3.876   8.448   0.628 -1.0269  1.0564 -2.0603
21249SOL     OW65740   4.503   3.133   1.118  0.0051 -0.0390 -0.7416
21249SOL    HW165741   4.470   3.191   1.186  1.5044  1.8929 -1.5540
21249SOL    HW265742   4.580   3.091   1.158  0.2197  0.2229 -0.8818
21250SOL     OW65743   7.335   6.620   1.161 -0.0900 -0.3299 -0.4231
21250SOL    HW165744   7.425   6.626   1.128  0.4367 -0.8410  0.8683
21250SOL    HW265745   7.290   6.564   1.097  0.3479  0.3838 -1.3797
21251SOL     OW65746   0.356   7.366   2.826  0.1028 -0.3822  0.0800
21251SOL    HW165747   0.427   7.397   2.882  1.0408 -0.8682 -0.7906
21251SOL    HW265748   0.321   7.445   2.785  0.2799 -0.1556  0.3649
21252SOL     OW65749   6.565   1.411   2.751  0.1867  0.0813  0.3330
21252SOL    HW165750   6.595   1.495   2.786  0.3045  0.6717 -1.1062
21252SOL    HW265751   6.520   1.369   2.824  2.0526  0.3991  1.7281
21253SOL     OW65752   7.523   8.044   4.477 -0.1566  0.0124  0.0608
21253SOL    HW165753   7.488   8.132   4.489 -1.3735 -0.5322  0.6972
21253SOL    HW265754   7.580   8.030   4.553  0.0404  0.2387 -0.0429
21254SOL     OW65755   0.850   3.317   6.629  0.4665 -0.4406  0.8251
21254SOL    HW165756   0.936   3.352   6.650  0.6815 -0.0203 -0.6411
21254SOL    HW265757   0.845   3.322   6.534 -0.7391 -1.5138  0.8115
21255SOL     OW65758   1.204   2.982   8.259  0.3816  0.4440 -0.5231
21255SOL    HW165759   1.122   2.978   8.209  0.7311 -1.1507 -1.0415
21255SOL    HW265760   1.234   3.072   8.248 -2.2026  1.6361  1.2344
21256SOL     OW65761   4.678   3.971   8.464 -0.0295  0.1439 -0.7169
21256SOL    HW165762   4.684   3.994   8.556 -3.2852  0.6565 -0.5384
21256SOL    HW265763   4.765   3.992   8.429  0.8095  1.4235  1.8616
21257SOL     OW65764   2.011   4.836   4.255 -0.4503  0.5354  0.3611
21257SOL    HW165765   2.014   4.745   4.285 -0.5661  0.1189 -0.8327
21257SOL    HW265766   1.997   4.830   4.161  0.5026  1.7735  0.1042
21258SOL     OW65767   0.753   5.846   6.130  0.2863  0.5315  0.0231
21258SOL    HW165768   0.668   5.879   6.159  0.5701  0.2934  1.1591
21258SOL    HW265769   0.735   5.803   6.046 -0.3288  2.3284 -0.8179
21259SOL     OW65770   0.836   4.772   8.380  0.1378 -0.0774 -0.0478
21259SOL    HW165771   0.904   4.756   8.445  1.4147 -0.9566 -1.5260
21259SOL    HW265772   0.883   4.783   8.297 -1.5103 -0.8866 -1.1616
21260SOL     OW65773   7.401   0.233   7.018 -0.1278 -0.1912 -0.2252
21260SOL    HW165774   7.411   0.327   7.032  0.3109 -0.3798  0.7768
21260SOL    HW265775   7.360   0.200   7.098  0.9439 -1.0489  0.0010
21261SOL     OW65776   6.731   1.806   1.698  0.2815 -0.5761 -0.5084
21261SOL    HW165777   6.638   1.788   1.715  0.4028  0.0704  0.9344
21261SOL    HW265778   6.730   1.859   1.618 -0.7400  0.8627  0.4102
21262SOL     OW65779   2.988   4.137   0.113  0.1541 -0.2855 -0.2934
21262SOL    HW165780   2.983   4.108   0.022 -0.8626 -0.7516 -0.1043
21262SOL    HW265781   3.024   4.225   0.109 -2.7255  0.9728 -1.4361
21263SOL     OW65782   2.560   2.084   8.294  0.1381  0.0719  0.2887
21263SOL    HW165783   2.495   2.138   8.341  0.4620 -0.1021  0.9501
21263SOL    HW265784   2.525   1.995   8.300 -0.2650  0.1556 -0.5797
21264SOL     OW65785   5.897   7.647   2.173  0.6185 -0.1179 -0.6011
21264SOL    HW165786   5.808   7.624   2.148  0.1098  1.9777 -0.8957
21264SOL    HW265787   5.889   7.681   2.262  0.7373  2.0958 -1.3913
21265SOL     OW65788   5.539   1.561   7.875 -0.5208 -0.1552 -0.1039
21265SOL    HW165789   5.521   1.652   7.850 -0.7232 -0.1538  0.0447
21265SOL    HW265790   5.465   1.511   7.839 -2.3321  0.2001  2.7985
21266SOL     OW65791   6.423   0.020   6.495  0.0704  0.4240 -0.1684
21266SOL    HW165792   6.421   0.041   6.588  0.4198  0.1184 -0.0901
21266SOL    HW265793   6.515   0.025   6.470 -0.1591  1.9385 -0.8405
21267SOL     OW65794   3.673   1.336   0.721 -0.3113 -0.1255 -0.2581
21267SOL    HW165795   3.682   1.283   0.641 -0.7239 -1.5292  0.5920
21267SOL    HW265796   3.719   1.417   0.701  0.9351 -1.0698 -1.3807
21268SOL     OW65797   2.339   2.196   7.547 -0.2175 -0.6494 -0.1883
21268SOL    HW165798   2.281   2.123   7.523 -0.1754 -1.2794  1.5174
21268SOL    HW265799   2.386   2.165   7.624 -0.8225  1.5061  1.1193
21269SOL     OW65800   1.180   4.017   3.657 -0.3445 -0.1672  0.7241
21269SOL    HW165801   1.114   3.959   3.695 -1.1159  0.5222  0.4575
21269SOL    HW265802   1.132   4.071   3.594  0.6152 -0.1942 -0.0706
21270SOL     OW65803   0.975   0.785   5.842 -0.3238  0.6843 -0.0189
21270SOL    HW165804   0.893   0.833   5.845 -0.5953  0.5474 -2.4804
21270SOL    HW265805   0.950   0.696   5.815  0.5416  0.4131  0.0264
21271SOL     OW65806   6.030   0.093   7.570  0.1794 -0.2427 -0.0671
21271SOL    HW165807   6.051   0.000   7.564 -1.3940 -0.8793  2.6186
21271SOL    HW265808   6.046   0.116   7.661 -2.0037  1.3920  0.0040
21272SOL     OW65809   2.152   0.311   5.681 -0.0344  0.3813 -0.1931
21272SOL    HW165810   2.219   0.291   5.616  0.3882  1.2203 -0.0247
21272SOL    HW265811   2.196   0.364   5.746 -0.4871 -0.3393  0.7275
21273SOL     OW65812   7.354   2.382   0.466 -0.4438 -0.1018  0.0195
21273SOL    HW165813   7.374   2.439   0.541  0.2568 -1.9054  1.2823
21273SOL    HW265814   7.269   2.413   0.434  0.4338  2.3724 -0.1118
21274SOL     OW65815   2.339   7.138   6.305  0.0642 -0.6896  0.0382
21274SOL    HW165816   2.388   7.199   6.249  0.9070  0.7719  2.2264
21274SOL    HW265817   2.252   7.178   6.314  0.6345  0.2916  1.5187
21275SOL     OW65818   7.604   2.999   3.323  0.0436 -0.1800  0.5197
21275SOL    HW165819   7.615   2.973   3.232  2.1130 -1.2826  1.0174
21275SOL    HW265820   7.570   3.088   3.319  0.7328  0.0404 -1.3353
21276SOL     OW65821   8.154   4.559   3.712 -0.2177  0.4432 -0.5376
21276SOL    HW165822   8.198   4.603   3.640  1.6269  1.9501  1.3992
21276SOL    HW265823   8.225   4.524   3.766 -1.4300  1.0088  1.5404
21277SOL     OW65824   3.767   5.931   6.221 -0.5172  0.8717 -0.1083
21277SOL    HW165825   3.786   5.949   6.129  0.8011 -0.0662 -0.0486
21277SOL    HW265826   3.835   5.978   6.269 -0.7359  0.7181  0.3552
21278SOL     OW65827   0.533   5.085   5.667 -0.9639 -0.9132 -0.3948
21278SOL    HW165828   0.472   5.098   5.594 -1.1967 -0.8773 -0.1947
21278SOL    HW265829   0.549   4.991   5.667 -2.3144 -1.1844  0.5720
21279SOL     OW65830   8.157   8.690   6.033  0.5856  0.3512 -0.1309
21279SOL    HW165831   8.148   8.784   6.045  0.5289  0.1357  1.8624
21279SOL    HW265832   8.124   8.674   5.944  0.8125  2.2149 -0.5883
21280SOL     OW65833   5.698   2.328   8.650 -0.0084 -0.3420 -0.1129
21280SOL    HW165834   5.672   2.275   8.575  0.8917  0.1464 -0.7947
21280SOL    HW265835   5.794   2.332   8.644 -0.0484  1.2674 -0.0311
21281SOL     OW65836   8.362   7.499   6.339  0.4443 -0.9435 -0.6989
21281SOL    HW165837   8.378   7.405   6.345 -0.3772 -1.0549  0.2780
21281SOL    HW265838   8.447   7.540   6.353  0.4671 -1.5306  1.1838
21282SOL     OW65839   8.523   2.516   4.769  0.7477 -0.3052  0.0034
21282SOL    HW165840   8.552   2.600   4.733 -0.0627 -0.4997 -1.1646
21282SOL    HW265841   8.590   2.454   4.740  0.8436 -0.2291  0.0587
21283SOL     OW65842   0.260   0.810   1.368 -0.0018 -0.2455  0.0727
21283SOL    HW165843   0.331   0.831   1.428 -0.6091  1.3301  0.2735
21283SOL    HW265844   0.241   0.892   1.323  0.0806 -1.2652 -1.9213
21284SOL     OW65845   1.746   4.500   0.008 -0.0010  0.0966  0.3779
21284SOL    HW165846   1.755   4.583   0.056  0.6714 -0.1483  0.6816
21284SOL    HW265847   1.707   4.440   0.071 -0.0130  0.0373  0.3142
21285SOL     OW65848   2.700   3.244   1.433  1.0225 -0.3817 -0.4659
21285SOL    HW165849   2.612   3.207   1.424  1.0851 -0.7611  0.3455
21285SOL    HW265850   2.712   3.296   1.354 -0.1729  0.1795 -0.3085
21286SOL     OW65851   5.761   5.934   5.245  0.1205  0.3014  0.0820
21286SOL    HW165852   5.789   5.908   5.158  1.7943 -0.7209  0.8843
21286SOL    HW265853   5.666   5.919   5.245  0.2849 -0.9120 -1.1453
21287SOL     OW65854   5.604   1.500   0.767 -0.0709 -0.0341  0.0208
21287SOL    HW165855   5.695   1.525   0.783  0.3904 -1.5630 -0.0507
21287SOL    HW265856   5.584   1.537   0.680  0.3486  0.6271  0.1977
21288SOL     OW65857   1.172   5.225   2.746  0.2127 -0.4674 -0.0180
21288SOL    HW165858   1.204   5.315   2.752  0.1088 -0.3111 -1.4508
21288SOL    HW265859   1.088   5.226   2.792 -0.2662  0.4241 -0.8682
21289SOL     OW65860   8.509   2.897   4.661 -0.6066 -0.4227 -0.1214
21289SOL    HW165861   8.454   2.917   4.586 -0.5996 -2.3048 -0.6859
21289SOL    HW265862   8.553   2.815   4.638  0.4320 -0.3486  1.3934
21290SOL     OW65863   2.716   3.287   1.961  0.3785 -0.1351  0.1816
21290SOL    HW165864   2.648   3.265   1.898 -0.4214 -0.8631  1.2584
21290SOL    HW265865   2.779   3.340   1.912 -0.1900 -0.7170 -1.2219
21291SOL     OW65866   8.735   2.546   4.148  0.9392 -0.0192 -0.1580
21291SOL    HW165867   8.686   2.505   4.077  0.3198  0.5302 -0.0556
21291SOL    HW265868   8.702   2.635   4.152  0.1599 -0.3366  1.5247
21292SOL     OW65869   2.279   2.772   3.423 -0.7034 -0.5560 -0.1020
21292SOL    HW165870   2.193   2.799   3.455  0.5777  2.6320  1.0469
21292SOL    HW265871   2.269   2.767   3.328 -2.3857 -1.3607  0.0865
21293SOL     OW65872   4.359   5.926   2.322  0.3638 -0.0556  0.3822
21293SOL    HW165873   4.377   5.850   2.268  1.9606  0.5414  0.0202
21293SOL    HW265874   4.353   5.891   2.411 -1.4164 -0.9159 -0.0361
21294SOL     OW65875   1.716   5.939   3.501  0.5110  0.0221 -0.2166
21294SOL    HW165876   1.712   5.885   3.422  1.9012 -0.8192  0.2538
21294SOL    HW265877   1.625   5.951   3.526  0.1238 -1.2690 -0.8982
21295SOL     OW65878   8.218   0.386   7.947  0.0120  0.4388 -0.7649
21295SOL    HW165879   8.238   0.326   8.018 -0.5550 -1.1523 -1.8948
21295SOL    HW265880   8.125   0.405   7.956 -0.1738 -0.1546 -1.3371
21296SOL     OW65881   5.241   8.302   1.484  0.5137 -0.1073  0.6900
21296SOL    HW165882   5.229   8.384   1.436 -1.5080 -0.6025  0.2816
21296SOL    HW265883   5.237   8.326   1.576 -0.6944  0.1924  0.5695
21297SOL     OW65884   3.175   7.374   3.744 -0.0902 -0.3092  0.1648
21297SOL    HW165885   3.091   7.364   3.700 -0.5356  2.4840  0.2290
21297SOL    HW265886   3.181   7.297   3.801 -2.7951 -0.3878  0.4849
21298SOL     OW65887   8.321   4.289   4.452  0.6394 -0.0840 -0.3025
21298SOL    HW165888   8.241   4.237   4.448  0.0222  0.7874  0.3313
21298SOL    HW265889   8.386   4.236   4.406 -0.1095 -1.1420 -0.1927
21299SOL     OW65890   0.209   5.390   3.933 -0.0013 -0.6985  0.3138
21299SOL    HW165891   0.154   5.467   3.942  1.2838  0.1458  1.4584
21299SOL    HW265892   0.174   5.343   3.857 -0.6163  1.1733 -0.6193
21300SOL     OW65893   2.731   7.122   1.610  0.1233 -0.1244 -0.3919
21300SOL    HW165894   2.712   7.213   1.584  0.8390  0.6894  1.6862
21300SOL    HW265895   2.650   7.092   1.652  0.5658  0.3843  0.9015
21301SOL     OW65896   6.503   5.038   4.426  0.4969 -0.2480  0.1487
21301SOL    HW165897   6.542   4.978   4.489  0.9747 -0.7306 -0.5819
21301SOL    HW265898   6.468   4.981   4.358  0.4120  0.2784 -0.2582
21302SOL     OW65899   4.905   5.387   1.245 -0.0301 -0.6076 -0.3309
21302SOL    HW165900   4.963   5.456   1.213 -0.8598  0.4764  0.4292
21302SOL    HW265901   4.855   5.360   1.168  0.5144 -0.6032 -0.6981
21303SOL     OW65902   7.956   1.075   0.878  0.4452  0.0131  0.3057
21303SOL    HW165903   7.864   1.050   0.887  0.4627 -1.1064 -1.8758
21303SOL    HW265904   7.987   1.084   0.968 -1.7274  0.2459  1.1095
21304SOL     OW65905   1.039   5.139   0.290  0.5723  0.2389  0.2513
21304SOL    HW165906   1.113   5.172   0.340  1.2662 -1.5361  0.4729
21304SOL    HW265907   0.966   5.137   0.352  0.9637 -0.2450  0.6994
21305SOL     OW65908   2.587   4.007   1.546  0.1141  0.0986 -0.2072
21305SOL    HW165909   2.561   3.947   1.477  0.2576 -1.5443  1.1166
21305SOL    HW265910   2.504   4.039   1.582  0.0335  0.3722 -0.6256
21306SOL     OW65911   5.237   5.619   2.903  0.1507 -0.6085 -0.5338
21306SOL    HW165912   5.213   5.577   2.985 -0.7032 -1.0671 -1.0051
21306SOL    HW265913   5.231   5.713   2.922  1.6176 -0.6646  0.3909
21307SOL     OW65914   7.408   8.168   1.945 -0.0615 -0.3930  0.0526
21307SOL    HW165915   7.424   8.077   1.972  0.1200 -0.9686 -1.8722
21307SOL    HW265916   7.313   8.178   1.953  0.0563 -0.2248  1.7192
21308SOL     OW65917   4.741   0.154   7.136 -0.1156  0.1193 -0.2027
21308SOL    HW165918   4.743   0.249   7.121  0.3821  0.2289  0.5176
21308SOL    HW265919   4.671   0.142   7.200 -0.8968 -0.1298 -1.0747
21309SOL     OW65920   5.820   2.349   5.383 -0.0713 -0.6023  0.1016
21309SOL    HW165921   5.809   2.444   5.379 -0.6589 -0.6546  0.2941
21309SOL    HW265922   5.809   2.328   5.476  1.8246 -0.6674  0.3480
21310SOL     OW65923   4.299   0.846   3.255  0.0373  0.5687  0.0671
21310SOL    HW165924   4.227   0.883   3.204 -0.6769  0.7835  1.1809
21310SOL    HW265925   4.268   0.852   3.346  1.4048  0.5168  0.5471
21311SOL     OW65926   6.090   5.956   6.961  0.0706  0.0799 -0.8137
21311SOL    HW165927   6.166   6.015   6.954  0.8175 -0.9873 -1.9705
21311SOL    HW265928   6.084   5.936   7.055 -0.0367  1.7503 -0.4290
21312SOL     OW65929   5.353   7.600   4.099  0.3313  0.6423  0.0182
21312SOL    HW165930   5.371   7.540   4.172 -2.2789  1.2666  1.2857
21312SOL    HW265931   5.392   7.557   4.023  1.9271 -0.7251  1.5228
21313SOL     OW65932   0.455   5.412   2.809 -0.0091  0.2572  0.2546
21313SOL    HW165933   0.384   5.469   2.779  1.5529  1.8969 -0.4751
21313SOL    HW265934   0.531   5.470   2.816  1.5207 -1.6441  0.0315
21314SOL     OW65935   3.149   6.456   4.111 -0.1763 -0.4557  0.0305
21314SOL    HW165936   3.184   6.519   4.174 -3.9285  0.4244  1.5204
21314SOL    HW265937   3.107   6.389   4.165 -0.0802 -1.9016 -1.5763
21315SOL     OW65938   3.039   3.597   0.239  0.0314 -0.4931 -0.1836
21315SOL    HW165939   2.970   3.641   0.288 -0.6491 -2.9785  1.2674
21315SOL    HW265940   3.086   3.668   0.194 -1.4858  1.5637  1.2953
21316SOL     OW65941   2.692   0.842   5.628  0.1777 -0.8707 -0.0605
21316SOL    HW165942   2.597   0.845   5.624  0.2417  0.3571 -1.4912
21316SOL    HW265943   2.713   0.750   5.645 -1.2315 -1.3828 -0.9828
21317SOL     OW65944   0.880   3.805   8.132 -0.0658 -0.1446 -0.3633
21317SOL    HW165945   0.881   3.864   8.206  0.8992 -1.1956  0.4921
21317SOL    HW265946   0.897   3.718   8.169  0.6831 -0.6658 -1.8297
21318SOL     OW65947   2.023   5.602   0.237 -0.0721  0.5428 -0.9593
21318SOL    HW165948   2.103   5.626   0.284 -0.1643 -0.0946 -0.4492
21318SOL    HW265949   2.014   5.668   0.169  1.0745  0.4239 -1.2455
21319SOL     OW65950   2.468   0.678   3.930 -0.3620  0.3956 -0.1835
21319SOL    HW165951   2.432   0.762   3.902  0.5286  0.4646 -1.1718
21319SOL    HW265952   2.511   0.697   4.013  0.2464  1.0407 -0.6330
21320SOL     OW65953   2.547   0.614   2.093 -0.1742  0.2570  0.2483
21320SOL    HW165954   2.523   0.529   2.056  1.7521 -0.7751  1.2399
21320SOL    HW265955   2.584   0.663   2.019 -1.5877  0.4080 -0.4019
21321SOL     OW65956   0.672   6.406   4.115 -0.2973  0.0432  0.4030
21321SOL    HW165957   0.730   6.473   4.079 -0.1942  0.1891  0.8430
21321SOL    HW265958   0.593   6.411   4.060 -0.2373  0.4326  0.3498
21322SOL     OW65959   1.255   3.727   8.596  0.3844  0.1098 -0.9250
21322SOL    HW165960   1.309   3.692   8.526 -0.3442  0.0727 -1.4727
21322SOL    HW265961   1.193   3.785   8.552 -1.2155 -1.2456 -0.5337
21323SOL     OW65962   2.001   0.761   8.767  0.3194  0.1932 -0.6115
21323SOL    HW165963   1.909   0.739   8.750  0.2949  1.7595 -2.9035
21323SOL    HW265964   1.997   0.841   8.820  0.2828  1.2252 -2.1036
21324SOL     OW65965   6.943   4.965   8.088 -0.1962  0.1977  0.3199
21324SOL    HW165966   6.940   4.930   7.999  0.4915  3.3356 -1.0727
21324SOL    HW265967   7.016   4.920   8.130  0.2511 -0.4590 -1.1184
21325SOL     OW65968   3.267   7.273   5.634  0.7470 -0.3944 -0.0387
21325SOL    HW165969   3.179   7.237   5.640  0.8799 -0.4955  1.8669
21325SOL    HW265970   3.319   7.203   5.594  0.6140 -1.6213  1.8370
21326SOL     OW65971   2.192   1.684   0.800  0.0218  0.5176  0.0884
21326SOL    HW165972   2.184   1.742   0.876 -0.0646  0.2842  0.2575
21326SOL    HW265973   2.112   1.631   0.802 -0.5103  1.2457 -0.7848
21327SOL     OW65974   2.034   3.553   1.624 -0.5716  0.6389 -0.5156
21327SOL    HW165975   2.066   3.493   1.692 -2.2999  0.0152 -0.2023
21327SOL    HW265976   2.069   3.517   1.542 -0.5562 -0.0765 -0.2038
21328SOL     OW65977   0.359   1.899   2.763  0.0165  0.7588  0.0725
21328SOL    HW165978   0.270   1.923   2.737  0.0948 -0.1447 -1.1317
21328SOL    HW265979   0.375   1.815   2.720  1.3379  0.7462  0.5282
21329SOL     OW65980   5.111   6.166   0.114  0.0234  0.1449  0.3265
21329SOL    HW165981   5.054   6.212   0.175  2.1257  2.0024  1.0492
21329SOL    HW265982   5.197   6.208   0.125  1.0204 -0.9554 -2.3000
21330SOL     OW65983   3.442   7.715   5.993 -0.4401 -0.2357  0.1197
21330SOL    HW165984   3.374   7.745   5.933 -0.2620  0.3752  0.2227
21330SOL    HW265985   3.457   7.623   5.968 -0.1281  0.1092 -0.9941
21331SOL     OW65986   8.765   8.394   1.964  0.1571 -0.1185  0.1303
21331SOL    HW165987   8.763   8.436   1.878  2.4808  0.7755  0.4227
21331SOL    HW265988   8.793   8.304   1.946 -1.1544 -0.4843 -0.1737
21332SOL     OW65989   2.589   1.416   2.777  0.9119  0.1430  0.0522
21332SOL    HW165990   2.556   1.505   2.778  1.1930  0.2504 -0.1211
21332SOL    HW265991   2.512   1.361   2.793  0.3457  0.3049 -1.9030
21333SOL     OW65992   4.312   6.047   0.365  0.3601  0.0287 -0.3178
21333SOL    HW165993   4.337   6.087   0.281 -0.0652  0.0385 -0.4399
21333SOL    HW265994   4.259   5.971   0.340 -0.0918  0.2551 -0.0502
21334SOL     OW65995   1.666   3.489   6.734 -0.3700  0.1663 -0.6650
21334SOL    HW165996   1.673   3.445   6.819 -2.4319  0.0073 -0.5174
21334SOL    HW265997   1.726   3.563   6.740  0.8820 -0.8831  0.2305
21335SOL     OW65998   0.297   8.670   3.135 -0.3815  0.1382  0.2377
21335SOL    HW165999   0.251   8.658   3.218 -0.9523  0.5481 -0.0202
21335SOL    HW266000   0.278   8.591   3.085 -0.9592  0.3898  0.0587
21336SOL     OW66001   3.730   0.026   7.751  0.1207 -0.4698 -0.1566
21336SOL    HW166002   3.691  -0.030   7.818  0.4070  0.3647  0.7458
21336SOL    HW266003   3.716  -0.020   7.669  0.1205 -1.7299  0.5290
21337SOL     OW66004   8.652   1.539   6.742 -0.2949 -0.1546  0.1986
21337SOL    HW166005   8.711   1.465   6.757  0.6860  0.4041 -0.7158
21337SOL    HW266006   8.571   1.500   6.712 -1.0628 -1.0587  3.1346
21338SOL     OW66007   1.935   3.963   6.709 -0.3805  0.4918  0.2028
21338SOL    HW166008   1.950   4.054   6.684  1.4612  0.2802  0.3958
21338SOL    HW266009   1.973   3.911   6.638  1.0392 -0.0988  1.3314
21339SOL     OW66010   8.476   5.298   2.501 -0.1173 -0.0996 -1.3509
21339SOL    HW166011   8.514   5.262   2.581 -0.3385  0.4957 -0.9724
21339SOL    HW266012   8.399   5.244   2.484 -0.2119 -0.0715 -1.0193
21340SOL     OW66013   0.240   6.905   8.402 -0.2371 -0.0123 -0.1627
21340SOL    HW166014   0.298   6.981   8.410  0.8860 -1.0010  2.3031
21340SOL    HW266015   0.170   6.921   8.465 -0.1686 -0.8294  0.1409
21341SOL     OW66016   2.942   2.947   0.004  0.4128 -0.3035  0.2020
21341SOL    HW166017   2.972   2.994  -0.074 -2.3040 -0.5254 -1.0927
21341SOL    HW266018   2.879   3.006   0.045 -1.0474 -1.6897  0.0505
21342SOL     OW66019   7.881   0.994   7.248 -0.0831  0.1909 -0.1233
21342SOL    HW166020   7.870   1.073   7.302  1.7671  1.0585 -0.9162
21342SOL    HW266021   7.889   0.923   7.312 -0.9945  0.7400  0.6378
21343SOL     OW66022   0.929   5.057   3.891  0.1202  0.5808 -0.5091
21343SOL    HW166023   0.948   4.963   3.887 -1.6065  0.1356  0.7599
21343SOL    HW266024   0.977   5.094   3.816  0.2980 -1.3888 -1.4372
21344SOL     OW66025   8.389   5.490   7.259  0.0518  0.3624 -0.3350
21344SOL    HW166026   8.306   5.451   7.287 -0.0105  1.5296  1.2345
21344SOL    HW266027   8.381   5.497   7.164 -2.1424  1.4353 -0.1401
21345SOL     OW66028   6.302   6.502   3.348 -0.4968  0.4374  0.7482
21345SOL    HW166029   6.381   6.489   3.401  0.7169  1.8669 -0.6169
21345SOL    HW266030   6.312   6.442   3.275 -1.2366 -0.1708  1.1394
21346SOL     OW66031   0.324   7.059   6.706  0.0756  0.4588 -0.4983
21346SOL    HW166032   0.314   7.072   6.801  1.6299 -0.6205 -0.1324
21346SOL    HW266033   0.276   6.978   6.689 -0.3509  0.7468 -0.6786
21347SOL     OW66034   6.469   4.599   6.908  0.1219  0.2260 -0.0156
21347SOL    HW166035   6.406   4.533   6.878  1.3528 -0.0433 -2.2649
21347SOL    HW266036   6.421   4.682   6.903 -0.4748 -0.1313 -0.3496
21348SOL     OW66037   3.856   1.675   8.469  0.1430  0.2306  0.2810
21348SOL    HW166038   3.922   1.607   8.458  0.8099  0.7869  0.7432
21348SOL    HW266039   3.781   1.645   8.418  0.5743 -0.6501  0.1589
21349SOL     OW66040   2.681   8.537   3.710 -0.0362  0.7505 -0.2726
21349SOL    HW166041   2.751   8.579   3.760  0.6479 -0.4100 -0.2001
21349SOL    HW266042   2.694   8.443   3.727 -1.5452  0.5141 -0.3540
21350SOL     OW66043   6.805   5.126   0.512  0.1982 -0.2364 -0.5295
21350SOL    HW166044   6.720   5.083   0.505  0.4638 -1.2283  1.6717
21350SOL    HW266045   6.864   5.069   0.462  0.2090 -1.5801  0.9238
21351SOL     OW66046   7.540   6.654   4.421  0.0078 -0.5468 -0.0229
21351SOL    HW166047   7.481   6.728   4.431  0.9728  0.1787  0.3686
21351SOL    HW266048   7.508   6.608   4.343 -0.0257  0.8098 -0.8311
21352SOL     OW66049   5.641   3.122   0.998 -0.0706  0.6559 -0.5194
21352SOL    HW166050   5.574   3.186   0.976  0.1871  0.7098 -1.1646
21352SOL    HW266051   5.631   3.054   0.931 -0.4852 -0.0915  0.2778
21353SOL     OW66052   1.749   7.056   3.939 -0.1806 -0.5035  0.7259
21353SOL    HW166053   1.689   7.014   3.877 -0.3154 -0.9921  1.1788
21353SOL    HW266054   1.758   7.146   3.907  0.7431 -1.0898 -0.7223
21354SOL     OW66055   1.234   2.266   3.655 -0.2317 -0.3957  0.5299
21354SOL    HW166056   1.162   2.289   3.597  0.1229  0.3535  0.3678
21354SOL    HW266057   1.297   2.338   3.644  0.9039 -1.4214  0.0490
21355SOL     OW66058   7.762   7.043   1.753 -0.1104  0.1325 -0.3426
21355SOL    HW166059   7.760   7.049   1.849 -1.5400 -0.8326 -0.2838
21355SOL    HW266060   7.688   6.986   1.731  0.5378 -0.1249 -1.9919
21356SOL     OW66061   4.075   0.252   6.401  0.1775  0.3798 -0.0008
21356SOL    HW166062   4.014   0.297   6.460  1.3034  0.9616  0.7435
21356SOL    HW266063   4.124   0.193   6.459  1.4116  1.0776 -0.3284
21357SOL     OW66064   7.124   8.369   1.215 -0.1878 -0.2865  0.0650
21357SOL    HW166065   7.121   8.456   1.253 -2.2005  0.0983 -0.8279
21357SOL    HW266066   7.163   8.381   1.128 -0.6527 -0.2132 -0.1402
21358SOL     OW66067   1.919   3.030   3.389  0.2561 -0.6223  0.4341
21358SOL    HW166068   2.009   3.022   3.420  0.5109  0.2150 -0.0390
21358SOL    HW266069   1.913   3.120   3.357 -1.3679  0.0410  2.3894
21359SOL     OW66070   8.511   6.471   5.615  0.3396  0.1701  0.4106
21359SOL    HW166071   8.506   6.386   5.572  1.2594  0.6060 -0.6422
21359SOL    HW266072   8.604   6.480   5.638  0.3720  1.1142 -0.0297
21360SOL     OW66073   3.813   7.403   7.382  0.5783 -0.4097 -0.1829
21360SOL    HW166074   3.751   7.340   7.346 -0.4263  0.2885  0.2587
21360SOL    HW266075   3.853   7.444   7.305  1.4283 -1.7332 -0.4697
21361SOL     OW66076   8.161   5.192   3.475  0.0497  0.0085 -0.6513
21361SOL    HW166077   8.120   5.147   3.549  1.0636 -1.0403 -0.6927
21361SOL    HW266078   8.089   5.229   3.426 -0.6596  0.6159  0.7975
21362SOL     OW66079   7.222   8.539   4.329 -0.4637  0.6088 -0.0954
21362SOL    HW166080   7.143   8.501   4.291  0.6076 -1.4297 -0.4461
21362SOL    HW266081   7.292   8.512   4.270  0.6832  1.0711  1.0109
21363SOL     OW66082   7.454   3.463   3.033  0.2349 -0.0310 -0.3050
21363SOL    HW166083   7.525   3.400   3.029  1.2134  0.9339  1.2243
21363SOL    HW266084   7.386   3.420   3.084  0.7506 -0.0055  0.4133
21364SOL     OW66085   5.594   5.905   7.079 -0.0404  0.0133  0.9782
21364SOL    HW166086   5.513   5.949   7.105  0.0972  1.5469 -0.9566
21364SOL    HW266087   5.603   5.924   6.986  2.9742  0.6150  1.2901
21365SOL     OW66088   4.271   2.181   2.162 -0.3014 -0.1820 -0.0521
21365SOL    HW166089   4.236   2.269   2.178 -1.6597 -0.2600 -2.1251
21365SOL    HW266090   4.354   2.179   2.209 -0.5968  1.9457  0.6697
21366SOL     OW66091   0.285   1.574   8.195 -0.3286 -0.1640  0.4195
21366SOL    HW166092   0.343   1.511   8.239 -0.7204 -1.0635 -0.3142
21366SOL    HW266093   0.234   1.521   8.135 -0.9230  0.8267  0.0289
21367SOL     OW66094   4.287   8.052   6.665  0.4547 -0.4741 -0.3881
21367SOL    HW166095   4.231   8.127   6.685 -0.9926 -1.2900 -1.1728
21367SOL    HW266096   4.372   8.090   6.645  0.6160  0.7181  2.1763
21368SOL     OW66097   0.844   7.615   8.887 -0.1305 -0.3322  0.3752
21368SOL    HW166098   0.751   7.596   8.878 -0.1742 -0.3793  0.9189
21368SOL    HW266099   0.883   7.584   8.805 -0.5866 -0.3305  0.1556
21369SOL     OW66100   1.911   5.547   0.473  0.4568 -0.0558  0.2263
21369SOL    HW166101   1.825   5.529   0.435  0.6671 -1.0207  0.1750
21369SOL    HW266102   1.968   5.560   0.397  0.9836 -2.4784  0.1141
21370SOL     OW66103   6.144   1.342   5.410  0.1562 -0.0059 -0.0942
21370SOL    HW166104   6.195   1.284   5.466  0.6421  0.3305 -0.1762
21370SOL    HW266105   6.165   1.315   5.321  0.5439  0.4170 -0.1371
21371SOL     OW66106   0.192   5.287   8.831 -0.0764  0.3439 -0.2298
21371SOL    HW166107   0.275   5.335   8.831  1.0085 -1.4629 -0.4798
21371SOL    HW266108   0.148   5.316   8.911  1.3115  0.4781  0.5206
21372SOL     OW66109   3.774   3.514   2.955  0.3988 -0.1725 -0.0851
21372SOL    HW166110   3.725   3.434   2.976 -0.5346  0.2852 -0.4535
21372SOL    HW266111   3.706   3.579   2.934  1.0273  1.1485  1.6232
21373SOL     OW66112   0.341   7.147   8.316 -0.0267  0.2345 -0.3852
21373SOL    HW166113   0.270   7.210   8.321 -2.1428 -2.0411 -0.0553
21373SOL    HW266114   0.385   7.154   8.401 -1.7042 -0.3214  0.5748
21374SOL     OW66115   0.178   4.678   7.468  0.2510 -0.0670 -0.1947
21374SOL    HW166116   0.115   4.656   7.537  1.1859 -0.7634  0.4594
21374SOL    HW266117   0.125   4.680   7.388 -0.7621  0.2861  0.4652
21375SOL     OW66118   4.681   4.072   3.365 -0.0539  0.2835 -0.0562
21375SOL    HW166119   4.748   4.004   3.358 -0.5719 -0.2204 -0.3074
21375SOL    HW266120   4.666   4.081   3.459  0.2777  0.3104 -0.0046
21376SOL     OW66121   8.721   4.011   2.115  0.4825  0.6277 -0.4245
21376SOL    HW166122   8.686   4.097   2.140 -0.7260  0.3513 -1.0837
21376SOL    HW266123   8.723   4.013   2.020  0.9178  0.0901 -0.4310
21377SOL     OW66124   6.340   2.878   5.532 -0.0290 -0.2605 -0.0256
21377SOL    HW166125   6.254   2.858   5.567 -0.2880  0.0557 -0.4709
21377SOL    HW266126   6.364   2.962   5.571 -0.6496  0.4699 -1.1704
21378SOL     OW66127   4.315   2.233   6.279 -0.1053 -0.3298 -0.2225
21378SOL    HW166128   4.400   2.251   6.237 -0.0269  1.0204  0.4657
21378SOL    HW266129   4.337   2.208   6.368 -0.4012 -0.8759 -0.2968
21379SOL     OW66130   2.083   7.516   2.073 -0.3097 -0.2824 -0.4642
21379SOL    HW166131   2.155   7.460   2.043 -0.1881 -0.4570  0.1343
21379SOL    HW266132   2.016   7.455   2.104 -1.5456 -0.1895 -2.7735
21380SOL     OW66133   3.459   5.641   0.847 -0.0024  0.0984 -0.1577
21380SOL    HW166134   3.414   5.657   0.930  0.6352  1.9399 -0.1286
21380SOL    HW266135   3.427   5.710   0.788 -1.2113 -1.7469 -1.8162
21381SOL     OW66136   0.435   6.825   7.201 -0.1699 -0.7225 -0.6399
21381SOL    HW166137   0.481   6.877   7.135  0.2878 -0.7367 -0.3371
21381SOL    HW266138   0.431   6.882   7.278 -1.9004 -0.1931 -1.0939
21382SOL     OW66139   8.741   5.583   3.806 -0.4001 -0.2639  0.2593
21382SOL    HW166140   8.692   5.529   3.868 -0.1532 -1.1304 -0.2944
21382SOL    HW266141   8.685   5.660   3.793 -1.2759 -0.8975  0.2065
21383SOL     OW66142   4.270   3.720   2.617  0.1443 -0.2981  0.2664
21383SOL    HW166143   4.225   3.648   2.660  0.2764  0.3017  1.4455
21383SOL    HW266144   4.314   3.679   2.542  0.1674 -1.4370  0.8752
21384SOL     OW66145   6.067   1.432   1.707 -0.5555 -0.1030 -0.3168
21384SOL    HW166146   6.018   1.394   1.780 -0.7741 -1.6696 -1.2189
21384SOL    HW266147   6.159   1.413   1.728 -0.6373 -0.8283 -0.5581
21385SOL     OW66148   6.984   5.446   1.221  0.2596 -0.2056 -0.6716
21385SOL    HW166149   7.032   5.389   1.281  0.8930 -0.3146 -1.2749
21385SOL    HW266150   7.045   5.464   1.150 -0.6525 -0.5114 -1.5624
21386SOL     OW66151   4.245   1.315   1.798  0.6610 -0.3191 -0.1814
21386SOL    HW166152   4.279   1.328   1.710  5.5732 -0.4507  1.4230
21386SOL    HW266153   4.195   1.234   1.794  0.2910 -0.0272 -2.8639
21387SOL     OW66154   6.372   1.623   4.659  0.4609 -0.7952  0.2741
21387SOL    HW166155   6.294   1.596   4.708  0.0113  0.3359  0.2038
21387SOL    HW266156   6.424   1.672   4.722  1.3218 -1.8568  0.4262
21388SOL     OW66157   3.544   3.588   3.350 -0.5096  0.0939  0.5895
21388SOL    HW166158   3.512   3.501   3.324  0.1553  0.2152 -0.7294
21388SOL    HW266159   3.465   3.639   3.364 -0.9250 -0.2440 -0.3785
21389SOL     OW66160   7.299   1.287   5.109 -0.3984  0.7269  0.7572
21389SOL    HW166161   7.369   1.225   5.131  0.3784  1.0063 -0.7760
21389SOL    HW266162   7.322   1.367   5.157 -0.0839  0.5733  0.8662
21390SOL     OW66163   5.403   3.675   7.898 -0.1576  0.1207 -0.2792
21390SOL    HW166164   5.317   3.690   7.938 -1.8221 -1.4137 -2.9424
21390SOL    HW266165   5.407   3.736   7.825  1.2631  0.4669  0.0522
21391SOL     OW66166   0.293   4.872   2.223  0.8089 -0.0831 -0.1986
21391SOL    HW166167   0.247   4.811   2.165  3.0344 -2.3310  0.2034
21391SOL    HW266168   0.237   4.878   2.301  1.0392 -2.7209  0.2811
21392SOL     OW66169   1.170   5.041   7.500 -0.4104  0.1269  0.0910
21392SOL    HW166170   1.091   5.063   7.450 -0.3042 -2.0159 -1.1361
21392SOL    HW266171   1.239   5.037   7.434  0.6012  1.2393  1.0461
21393SOL     OW66172   4.545   0.599   8.548  0.3094 -0.8154  0.0693
21393SOL    HW166173   4.553   0.693   8.530 -0.2459  0.0379  3.5045
21393SOL    HW266174   4.453   0.579   8.530  0.3266 -0.6172 -0.2518
21394SOL     OW66175   0.929   0.241   3.086  0.0423  0.2193 -0.0593
21394SOL    HW166176   0.935   0.268   3.177  1.0854  0.1006 -0.0810
21394SOL    HW266177   0.932   0.145   3.089  1.2617  0.2306 -0.2713
21395SOL     OW66178   8.747   2.876   6.137 -0.4538 -0.3528 -0.3941
21395SOL    HW166179   8.693   2.932   6.193 -0.3906  1.0939 -1.7317
21395SOL    HW266180   8.684   2.817   6.095 -0.7711  0.1192 -0.5824
21396SOL     OW66181   8.298   5.432   1.200 -0.3875  0.0253 -0.0430
21396SOL    HW166182   8.212   5.404   1.169 -0.3789 -1.2340  0.9852
21396SOL    HW266183   8.357   5.412   1.127 -0.7669 -0.3853 -0.2426
21397SOL     OW66184   7.244   4.457   6.575  0.3676 -0.2569  0.4068
21397SOL    HW166185   7.253   4.396   6.502  2.6380  0.8044 -0.2696
21397SOL    HW266186   7.266   4.404   6.652 -0.3654 -0.9512  0.1554
21398SOL     OW66187   3.282   5.910   5.717  0.2190 -0.1010  0.4014
21398SOL    HW166188   3.236   5.830   5.740  3.1878 -2.1998 -0.3780
21398SOL    HW266189   3.213   5.973   5.696 -2.2305 -2.7649 -0.0388
21399SOL     OW66190   4.319   1.497   5.855 -0.1054 -0.0846  0.2690
21399SOL    HW166191   4.269   1.437   5.910  1.8269 -0.9542  1.1881
21399SOL    HW266192   4.384   1.535   5.914  0.6748  0.5687 -0.9696
21400SOL     OW66193   3.973   0.234   7.076 -0.5235  0.6295 -0.0596
21400SOL    HW166194   4.065   0.227   7.051 -0.7080  0.2398 -0.6608
21400SOL    HW266195   3.969   0.310   7.133  0.1782  0.6345 -0.0124
21401SOL     OW66196   5.048   1.278   6.530  0.2158 -0.4819 -0.2902
21401SOL    HW166197   4.981   1.229   6.482  1.3744 -2.1198 -0.3359
21401SOL    HW266198   5.072   1.219   6.602  0.3784  0.8225  0.7539
21402SOL     OW66199   5.739   8.709   2.170 -0.5755  0.5230  0.0371
21402SOL    HW166200   5.773   8.744   2.088 -1.6351 -2.0188 -1.5965
21402SOL    HW266201   5.676   8.775   2.200  0.5818  1.9644 -0.5999
21403SOL     OW66202   0.634   2.475   2.716  0.1808  0.5089 -0.5386
21403SOL    HW166203   0.636   2.569   2.697 -0.4042  1.0120  1.6284
21403SOL    HW266204   0.567   2.440   2.658  1.8725  0.9739 -2.9371
21404SOL     OW66205   2.959   4.815   7.230  0.4451  0.5441  0.0814
21404SOL    HW166206   3.024   4.831   7.162  0.8832  2.1088  0.8392
21404SOL    HW266207   2.960   4.894   7.283 -2.4779  0.8553 -0.1898
21405SOL     OW66208   5.072   0.773   4.823  0.5347 -0.6673  0.1132
21405SOL    HW166209   5.080   0.686   4.784 -1.4472 -0.4869 -0.8312
21405SOL    HW266210   4.978   0.788   4.829  0.8259  1.0279  1.1737
21406SOL     OW66211   6.739   4.094   2.177 -0.2009 -0.0897  0.2308
21406SOL    HW166212   6.679   4.050   2.116 -0.6660 -1.1273  1.3931
21406SOL    HW266213   6.682   4.143   2.235  0.2858  1.5546 -0.6230
21407SOL     OW66214   7.422   1.898   3.456 -0.4077 -0.6038 -0.9464
21407SOL    HW166215   7.402   1.931   3.369  0.7979 -1.7564 -1.6937
21407SOL    HW266216   7.337   1.866   3.489 -0.9496  0.2067 -1.5127
21408SOL     OW66217   6.002   3.671   3.350 -0.2677  0.0623  0.7047
21408SOL    HW166218   5.941   3.631   3.287  0.0845  0.9870 -0.2507
21408SOL    HW266219   6.053   3.597   3.384 -0.4665 -0.4563 -0.0966
21409SOL     OW66220   0.508   7.212   3.422 -0.2948  0.5380  0.7248
21409SOL    HW166221   0.537   7.172   3.340 -1.4285  2.3308 -0.6263
21409SOL    HW266222   0.588   7.246   3.462  0.2386 -0.1339  0.2580
21410SOL     OW66223   7.591   5.675   6.430 -0.5644 -1.1136 -0.4189
21410SOL    HW166224   7.685   5.662   6.437  0.4501  2.9171 -3.0465
21410SOL    HW266225   7.577   5.765   6.460 -3.1066 -0.6697 -2.5493
21411SOL     OW66226   5.641   4.710   5.731  0.2981 -0.0449  1.1104
21411SOL    HW166227   5.587   4.767   5.786  2.1932  2.4971  0.5215
21411SOL    HW266228   5.701   4.769   5.686  0.3024 -2.2409 -2.0713
21412SOL     OW66229   7.875   3.237   7.211  0.2904 -0.5105 -0.3883
21412SOL    HW166230   7.948   3.215   7.269 -0.1145 -1.4654 -0.2102
21412SOL    HW266231   7.840   3.319   7.246  1.2735 -0.0351 -0.4829
21413SOL     OW66232   1.713   0.785   7.496 -0.3472 -0.4110 -0.9436
21413SOL    HW166233   1.710   0.873   7.459 -0.2880 -0.9740 -2.3430
21413SOL    HW266234   1.805   0.758   7.486 -0.2372 -0.4328  0.0023
21414SOL     OW66235   0.556   7.641   0.004  0.1818  0.2754 -0.1401
21414SOL    HW166236   0.507   7.587   0.066  0.3986 -0.6926 -0.8016
21414SOL    HW266237   0.509   7.724   0.002  0.5057  0.5562  1.7765
21415SOL     OW66238   4.997   4.672   7.305  0.1061  0.1019 -0.8569
21415SOL    HW166239   4.977   4.712   7.389  1.0118  2.9808 -1.8836
21415SOL    HW266240   5.089   4.646   7.311 -0.3145 -1.3452 -0.3979
21416SOL     OW66241   3.195   2.056   5.280  0.2112 -0.7783  0.1611
21416SOL    HW166242   3.118   2.017   5.239  0.6768 -2.2252  0.6045
21416SOL    HW266243   3.235   1.984   5.328  0.9171  0.3484  1.3133
21417SOL     OW66244   7.009   3.345   8.318  0.6529  0.2568 -0.7565
21417SOL    HW166245   6.926   3.384   8.346  0.4761 -0.6396  0.0124
21417SOL    HW266246   6.993   3.317   8.228 -0.5192 -1.6034 -0.0257
21418SOL     OW66247   5.383   0.266   2.785 -0.0090 -0.2272 -0.2808
21418SOL    HW166248   5.318   0.272   2.854  0.2078 -0.4787 -0.0562
21418SOL    HW266249   5.332   0.243   2.707 -0.2907  0.3400 -0.2713
21419SOL     OW66250   3.464   1.292   0.910  0.4817  0.4076 -0.2809
21419SOL    HW166251   3.527   1.320   0.844  1.7398  1.8108  1.4424
21419SOL    HW266252   3.379   1.323   0.877  0.3753 -2.4202 -3.1432
21420SOL     OW66253   0.862   3.705   8.630 -0.5228  0.2338 -0.0725
21420SOL    HW166254   0.809   3.725   8.707 -0.8963 -0.0609 -0.2476
21420SOL    HW266255   0.910   3.786   8.612 -1.4274  0.7264 -0.3108
21421SOL     OW66256   7.805   5.086   2.152 -0.2179  0.0122 -0.4612
21421SOL    HW166257   7.750   5.123   2.221  0.7940  1.2390 -0.2719
21421SOL    HW266258   7.769   4.999   2.137 -0.9704  0.0300  1.0365
21422SOL     OW66259   3.016   3.531   1.604 -0.2024  0.3829  0.6105
21422SOL    HW166260   3.014   3.475   1.681  0.7989 -0.7140 -0.1178
21422SOL    HW266261   3.018   3.470   1.530  0.7490  1.3677 -0.2280
21423SOL     OW66262   3.594   2.055   6.704  0.5713  0.1910  0.1821
21423SOL    HW166263   3.506   2.051   6.667  0.2245 -0.1033  1.0047
21423SOL    HW266264   3.621   1.963   6.712  0.6402  0.2462  0.6387
21424SOL     OW66265   2.272   6.344   7.832 -0.4827  0.0648  0.3831
21424SOL    HW166266   2.239   6.391   7.909 -0.3444  0.2819  0.3097
21424SOL    HW266267   2.196   6.298   7.798 -1.0616  1.6894 -0.6218
21425SOL     OW66268   8.884   8.851   7.421  0.0264 -0.1795  0.0808
21425SOL    HW166269   8.793   8.839   7.446  0.3891  0.0297  1.6232
21425SOL    HW266270   8.898   8.946   7.420 -0.8372  0.1502 -4.5249
21426SOL     OW66271   6.522   4.766   8.004 -0.2482 -0.0355 -0.4741
21426SOL    HW166272   6.578   4.809   8.069 -1.0755  0.0910  0.1790
21426SOL    HW266273   6.433   4.778   8.038 -0.8202  1.1200 -2.2709
21427SOL     OW66274   8.854   0.734   8.735 -0.6709 -0.8077 -0.4955
21427SOL    HW166275   8.884   0.822   8.712  0.6807 -1.0837  0.0899
21427SOL    HW266276   8.762   0.745   8.759 -0.7766  0.2724 -1.3332
21428SOL     OW66277   3.980   8.076   2.650  0.3417  0.1928 -0.5512
21428SOL    HW166278   3.974   8.136   2.725  0.8929  1.1630 -1.2586
21428SOL    HW266279   4.018   7.996   2.686  1.4905  0.9808  0.0372
21429SOL     OW66280   2.159   7.531   8.233 -0.3282  0.3992  0.5819
21429SOL    HW166281   2.147   7.474   8.309 -0.8292  0.7415  0.7694
21429SOL    HW266282   2.081   7.517   8.180 -0.7091  1.2799  0.8829
21430SOL     OW66283   5.312   5.712   0.544 -0.3413 -0.3343  0.0623
21430SOL    HW166284   5.239   5.653   0.527 -1.3009  0.9401 -0.4294
21430SOL    HW266285   5.270   5.795   0.569  0.9436  0.3047  0.1676
21431SOL     OW66286   0.771   6.463   2.006 -0.1230 -0.2570  0.4102
21431SOL    HW166287   0.815   6.531   2.057 -0.8325  0.2553  0.3560
21431SOL    HW266288   0.781   6.384   2.058 -0.6452  0.2121  1.2656
21432SOL     OW66289   3.626   7.348   3.899  0.0141  0.3401 -0.1683
21432SOL    HW166290   3.575   7.380   3.825  1.2865  1.6607 -0.5343
21432SOL    HW266291   3.717   7.366   3.875  0.4942  0.3698  1.5054
21433SOL     OW66292   2.498   2.209   0.869  0.2410 -0.4996 -0.1742
21433SOL    HW166293   2.417   2.159   0.859  1.2008 -1.8092 -1.8622
21433SOL    HW266294   2.509   2.218   0.964 -1.6306 -0.6634  0.0967
21434SOL     OW66295   7.204   4.231   5.734 -0.4118 -0.3176  0.5423
21434SOL    HW166296   7.274   4.213   5.672 -0.5252  0.3187  0.2158
21434SOL    HW266297   7.169   4.145   5.757 -0.9162 -0.5298 -0.9213
21435SOL     OW66298   1.599   2.945   6.912  0.2828 -0.3716  0.1260
21435SOL    HW166299   1.649   2.905   6.840  0.5239  2.2204 -1.2849
21435SOL    HW266300   1.509   2.918   6.896  0.5003 -0.7736 -0.4679
21436SOL     OW66301   3.856   4.307   8.764  0.0513 -0.3646  0.4559
21436SOL    HW166302   3.938   4.263   8.740  0.3553  0.4714 -0.0849
21436SOL    HW266303   3.863   4.322   8.858  0.2605 -0.8154  0.5151
21437SOL     OW66304   7.864   2.108   1.927  0.3058 -0.2573 -0.1094
21437SOL    HW166305   7.880   2.067   1.842 -0.6867  0.8913 -0.8871
21437SOL    HW266306   7.933   2.173   1.936  1.7812 -1.8985  1.0491
21438SOL     OW66307   7.084   4.708   0.659  0.3808  0.1750 -0.0120
21438SOL    HW166308   7.106   4.633   0.714 -1.0134 -1.2969 -1.3222
21438SOL    HW266309   7.150   4.708   0.590  1.2008  1.0523  0.7453
21439SOL     OW66310   0.009   1.128   1.900  0.5603 -0.5649 -0.1005
21439SOL    HW166311  -0.060   1.194   1.896  0.6236 -0.5493 -1.6711
21439SOL    HW266312  -0.037   1.045   1.894  0.4788 -0.7016  1.9067
21440SOL     OW66313   7.385   5.968   0.042 -0.0105 -0.0192 -0.2068
21440SOL    HW166314   7.428   5.929  -0.034  1.5652  2.1829 -0.5319
21440SOL    HW266315   7.362   5.893   0.097  0.3975 -1.5551 -2.0105
21441SOL     OW66316   2.815   6.971   3.932  0.2829  0.3300 -0.2152
21441SOL    HW166317   2.886   7.030   3.959  0.3890  1.2284 -2.2818
21441SOL    HW266318   2.736   7.025   3.938  0.3019  0.5326 -1.5423
21442SOL     OW66319   4.943   3.596   7.780 -0.5953  0.1876 -0.3282
21442SOL    HW166320   5.016   3.628   7.834 -0.8197 -0.6325  0.5013
21442SOL    HW266321   4.971   3.611   7.690 -0.3069  1.8173  0.0037
21443SOL     OW66322   7.723   4.985   6.693  0.3704 -0.0311  0.1805
21443SOL    HW166323   7.808   4.973   6.735  1.1621 -0.6008 -1.5068
21443SOL    HW266324   7.707   4.903   6.646 -0.7302  0.3809 -0.2011
21444SOL     OW66325   4.832   6.832   1.163 -0.3951  0.4800  0.0173
21444SOL    HW166326   4.794   6.918   1.148  0.2981  0.8784  0.4936
21444SOL    HW266327   4.927   6.845   1.156 -0.2473 -0.0850  0.8057
21445SOL     OW66328   2.528   1.966   1.566  0.1066 -0.3949 -0.0867
21445SOL    HW166329   2.439   1.941   1.541  0.3183 -0.3385 -0.9003
21445SOL    HW266330   2.567   1.885   1.599 -0.9953  0.0521  2.5583
21446SOL     OW66331   7.047   6.817   0.993 -0.0577  0.2667 -0.1374
21446SOL    HW166332   6.993   6.781   0.923 -0.3211 -0.5199  0.4533
21446SOL    HW266333   7.035   6.757   1.066  0.1675  1.1011  0.6080
21447SOL     OW66334   1.001   6.052   4.596  0.4891  0.3508 -0.1066
21447SOL    HW166335   0.986   6.140   4.562 -0.1928  0.1516 -0.3399
21447SOL    HW266336   0.987   5.995   4.521 -1.0241 -0.0988  0.4839
21448SOL     OW66337   7.446   6.685   1.514  0.0234 -0.0768  0.0838
21448SOL    HW166338   7.391   6.618   1.474 -0.4896  1.1982 -1.4270
21448SOL    HW266339   7.387   6.736   1.569  0.0829  0.1457 -0.0593
21449SOL     OW66340   4.542   7.255   5.759  0.1711  0.1348  0.2793
21449SOL    HW166341   4.584   7.188   5.705 -0.2324  0.0820  0.0207
21449SOL    HW266342   4.609   7.281   5.822  0.1709 -0.9148  0.7436
21450SOL     OW66343   0.034   3.950   4.704  0.5533  0.2713 -0.3083
21450SOL    HW166344  -0.026   3.886   4.743 -0.8287  2.0010  0.4939
21450SOL    HW266345  -0.022   4.019   4.671  2.0101  0.9736 -1.4125
21451SOL     OW66346   5.279   6.578   7.562 -0.1382  0.2582 -0.2065
21451SOL    HW166347   5.206   6.631   7.594  0.9441  1.4355  0.4113
21451SOL    HW266348   5.320   6.631   7.495  0.4509 -0.1697 -0.1967
21452SOL     OW66349   3.615   7.515   7.973  0.5439 -0.2273 -0.1327
21452SOL    HW166350   3.637   7.523   8.066  0.4659 -1.5199  0.0115
21452SOL    HW266351   3.620   7.421   7.955  0.7780  0.0290 -1.4966
21453SOL     OW66352   1.965   1.002   7.588 -0.0069  0.4883  0.3180
21453SOL    HW166353   1.924   1.006   7.501 -0.1424  0.5993  0.3864
21453SOL    HW266354   1.913   0.938   7.636 -0.0180  0.5290  0.3610
21454SOL     OW66355   1.723   6.095   5.091 -0.3663  0.0411 -0.2719
21454SOL    HW166356   1.743   6.068   5.181 -0.0785  0.0695 -0.3253
21454SOL    HW266357   1.748   6.019   5.038  1.5073  0.7869 -0.5302
21455SOL     OW66358   8.253   1.280   8.469 -0.3035  0.1096 -0.1856
21455SOL    HW166359   8.235   1.224   8.545  0.1698  0.5438  0.2603
21455SOL    HW266360   8.340   1.252   8.440  0.7835  1.8218  1.1866
21456SOL     OW66361   8.652   7.759   7.793 -0.0849 -0.7753  0.0715
21456SOL    HW166362   8.660   7.846   7.831 -0.5934 -0.6319 -0.1317
21456SOL    HW266363   8.689   7.768   7.705  0.4760 -0.9368  0.2883
21457SOL     OW66364   0.419   8.299   5.024 -0.1123  0.3615 -0.0447
21457SOL    HW166365   0.502   8.276   4.983 -0.4497  0.5920 -0.8706
21457SOL    HW266366   0.420   8.394   5.029 -0.0561  0.3355  0.5409
21458SOL     OW66367   1.728   7.341   0.507  0.5999  0.0150 -0.3110
21458SOL    HW166368   1.736   7.249   0.532 -1.0423  0.0749  0.5767
21458SOL    HW266369   1.683   7.339   0.423 -0.0789  0.0293  0.0519
21459SOL     OW66370   8.040   1.580   6.442  0.3051 -0.6317  0.5157
21459SOL    HW166371   8.007   1.552   6.528  0.7766  0.1207  0.9588
21459SOL    HW266372   8.085   1.663   6.460 -1.1035  0.4614 -0.7523
21460SOL     OW66373   7.519   4.098   3.363  0.4358 -0.2287 -0.3510
21460SOL    HW166374   7.570   4.018   3.348 -1.1208 -1.9348  2.5581
21460SOL    HW266375   7.463   4.106   3.286  1.4597 -1.2768 -1.2316
21461SOL     OW66376   3.337   6.024   7.315  0.8880 -0.0515 -0.1651
21461SOL    HW166377   3.418   6.044   7.363  0.5534 -0.3874  0.5435
21461SOL    HW266378   3.365   5.965   7.245  1.0480 -1.3293  0.9436
21462SOL     OW66379   4.048   4.769   4.031 -0.6781  0.1390 -0.1181
21462SOL    HW166380   4.118   4.703   4.037  0.6391  1.4340 -0.6973
21462SOL    HW266381   3.977   4.733   4.084  0.4715 -1.1535  0.6189
21463SOL     OW66382   0.082   7.197   2.821  0.5253  0.4030  0.5787
21463SOL    HW166383   0.110   7.241   2.740  0.6201 -0.6157  0.0351
21463SOL    HW266384   0.164   7.179   2.868  0.9024 -2.4751 -0.9586
21464SOL     OW66385   0.581   1.003   3.003  0.2431 -0.0878 -0.0814
21464SOL    HW166386   0.527   0.927   3.024 -1.8266  1.2089 -0.4176
21464SOL    HW266387   0.607   1.038   3.088 -2.2111  1.0969  0.2569
21465SOL     OW66388   0.096   3.387   8.199  0.0371 -0.6033  0.6122
21465SOL    HW166389   0.189   3.408   8.197  0.4387 -2.2872 -0.0507
21465SOL    HW266390   0.065   3.404   8.111 -0.2537 -0.2163  0.7858
21466SOL     OW66391   8.315   0.735   4.791 -0.1626  0.5235 -0.2032
21466SOL    HW166392   8.283   0.806   4.735 -0.4349  1.3743  0.9854
21466SOL    HW266393   8.301   0.656   4.739 -0.6752  1.2435 -1.2149
21467SOL     OW66394   5.561   2.546   1.305 -0.3548  0.6697 -0.1991
21467SOL    HW166395   5.639   2.529   1.252 -0.4766  1.1154 -0.5250
21467SOL    HW266396   5.526   2.629   1.271 -0.6585  0.7556  0.3108
21468SOL     OW66397   8.053   2.236   2.608  0.4617  0.6366  0.3634
21468SOL    HW166398   8.030   2.145   2.624  0.8634  0.8292  2.2477
21468SOL    HW266399   8.146   2.233   2.583  0.5427  0.5453  0.6721
21469SOL     OW66400   4.815   8.841   0.902 -0.4685  0.4490 -0.1386
21469SOL    HW166401   4.731   8.796   0.910 -0.0322 -0.2401  0.7644
21469SOL    HW266402   4.849   8.846   0.991  0.3131  0.9834 -0.4484
21470SOL     OW66403   0.988   2.179   1.200 -0.2637 -0.2900 -0.4724
21470SOL    HW166404   0.899   2.211   1.181  0.8651  2.7263 -1.3147
21470SOL    HW266405   1.000   2.196   1.293 -0.1608  0.5690 -0.6293
21471SOL     OW66406   4.465   1.743   3.690 -0.4961 -0.5423 -0.9060
21471SOL    HW166407   4.527   1.683   3.647 -0.5763  0.4041 -2.4222
21471SOL    HW266408   4.488   1.829   3.656 -0.3140  0.3543  1.3267
21472SOL     OW66409   0.159   5.071   7.687  0.1993 -0.6191  0.2403
21472SOL    HW166410   0.130   5.054   7.777 -1.6200 -2.8185 -0.6550
21472SOL    HW266411   0.203   4.991   7.660 -0.2490 -0.4214 -1.1715
21473SOL     OW66412   7.954   6.357   2.396  0.9409  0.3738  0.5856
21473SOL    HW166413   7.952   6.430   2.334  1.5473  1.0073  1.2964
21473SOL    HW266414   7.893   6.384   2.465  2.1077  0.7823  1.4724
21474SOL     OW66415   5.975   4.459   7.019  0.0112  0.7353 -0.1484
21474SOL    HW166416   5.942   4.547   7.001 -0.4626  0.7660  0.7772
21474SOL    HW266417   5.916   4.425   7.086 -0.1263 -0.4982 -0.8702
21475SOL     OW66418   1.018   2.301   4.766 -0.3258 -0.2244  0.5998
21475SOL    HW166419   1.029   2.366   4.695 -0.2259 -1.0813 -0.1854
21475SOL    HW266420   1.083   2.233   4.746 -1.0211 -0.9910  0.9187
21476SOL     OW66421   5.666   0.695   2.679  0.7720  0.0139  0.0924
21476SOL    HW166422   5.591   0.644   2.648  2.4014 -0.8795 -2.8197
21476SOL    HW266423   5.628   0.773   2.718 -1.6887 -0.7472 -0.6071
21477SOL     OW66424   7.015   6.445   0.157 -0.4467  0.2232  0.5288
21477SOL    HW166425   7.001   6.524   0.104 -0.2562  0.8759  1.4112
21477SOL    HW266426   6.941   6.388   0.136 -0.5312  0.5910 -0.2045
21478SOL     OW66427   8.100   8.165   6.972  0.0511  0.0548 -0.0253
21478SOL    HW166428   8.023   8.177   7.027 -0.1596 -1.6145  0.1004
21478SOL    HW266429   8.172   8.154   7.034  0.3961  1.5594 -0.1415
21479SOL     OW66430   2.647   3.544   7.083 -0.8188 -0.7487 -0.6953
21479SOL    HW166431   2.656   3.611   7.150  0.6384 -0.4650 -1.1365
21479SOL    HW266432   2.560   3.507   7.098 -0.8403 -0.1626  0.8346
21480SOL     OW66433   7.853   3.736   5.970 -0.1959  0.0011 -0.1581
21480SOL    HW166434   7.811   3.684   6.038  2.4016 -0.0117  1.6029
21480SOL    HW266435   7.838   3.827   5.996 -1.2450  0.0783 -0.9617
21481SOL     OW66436   1.628   5.637   2.788  0.0019 -0.2898  0.3276
21481SOL    HW166437   1.597   5.639   2.879 -1.6890  0.7850 -0.2395
21481SOL    HW266438   1.557   5.676   2.737  0.7881 -1.1388 -1.5148
21482SOL     OW66439   3.165   6.730   1.240 -0.3083  0.4365 -0.3279
21482SOL    HW166440   3.108   6.803   1.217 -0.4551  0.2347 -0.6084
21482SOL    HW266441   3.126   6.655   1.197 -0.5454  0.0567  0.5329
21483SOL     OW66442   3.037   3.672   3.781  1.0083 -0.1924 -0.1157
21483SOL    HW166443   3.002   3.589   3.811  0.3857 -0.4956 -1.5900
21483SOL    HW266444   2.960   3.724   3.757  1.3977  0.7072  0.5000
21484SOL     OW66445   5.488   7.385   5.138  0.7875 -0.1657  0.0457
21484SOL    HW166446   5.527   7.298   5.125  1.0493  0.1706 -1.6178
21484SOL    HW266447   5.469   7.416   5.049  2.1152  2.1313  0.5156
21485SOL     OW66448   8.341   0.350   3.502 -0.0228  0.3316 -0.3358
21485SOL    HW166449   8.364   0.418   3.565 -0.3039 -1.0814  1.3998
21485SOL    HW266450   8.424   0.324   3.463  0.2905  0.6291  0.1219
21486SOL     OW66451   1.349   1.661   7.600 -0.1840  0.3874  0.2914
21486SOL    HW166452   1.376   1.751   7.583  0.9057 -0.1969 -1.3369
21486SOL    HW266453   1.392   1.637   7.683  0.1303  1.1206  0.3421
21487SOL     OW66454   1.999   5.640   7.616 -0.0070 -0.0856 -0.9422
21487SOL    HW166455   2.045   5.620   7.534  0.4688  0.5430 -0.8351
21487SOL    HW266456   1.918   5.588   7.611  0.5104 -0.8885 -1.3192
21488SOL     OW66457   5.315   5.986   7.031  0.2815  0.2963 -0.5117
21488SOL    HW166458   5.316   6.077   7.004  0.4531 -0.4767 -3.4669
21488SOL    HW266459   5.294   5.937   6.951 -0.9310 -2.2083  1.1830
21489SOL     OW66460   5.496   8.604   0.994  0.5816  0.4729 -0.0702
21489SOL    HW166461   5.507   8.650   0.911  1.2457 -0.6967 -0.6420
21489SOL    HW266462   5.467   8.516   0.969 -1.1826  0.6972  1.0265
21490SOL     OW66463   2.933   6.049   4.358 -0.3008  0.1178  0.2637
21490SOL    HW166464   2.978   6.133   4.361  1.0642 -0.6130  1.8610
21490SOL    HW266465   3.002   5.984   4.372 -1.3509 -1.2738 -0.7358
21491SOL     OW66466   4.395   2.145   7.543  0.2918  0.2627  0.4864
21491SOL    HW166467   4.466   2.082   7.551 -0.0627 -0.4683 -1.4670
21491SOL    HW266468   4.407   2.184   7.456 -2.8909 -1.5168 -0.9355
21492SOL     OW66469   8.321   2.548   2.526 -0.1686 -0.1657  0.4254
21492SOL    HW166470   8.290   2.522   2.440 -0.2707 -0.0661  0.4322
21492SOL    HW266471   8.253   2.606   2.560 -0.1856 -0.2997  0.6211
21493SOL     OW66472   2.879   8.468   6.636  0.2391  0.2810 -0.2326
21493SOL    HW166473   2.904   8.377   6.618 -1.0785 -0.4715  1.4634
21493SOL    HW266474   2.937   8.495   6.706 -0.1555  0.3324  0.0768
21494SOL     OW66475   1.080   6.983   4.298 -0.0836 -0.5098 -0.5372
21494SOL    HW166476   1.087   6.889   4.284  1.1867 -1.1187  2.9926
21494SOL    HW266477   1.169   7.011   4.318 -0.8723  0.7416  1.6100
21495SOL     OW66478   1.472   6.165   1.936 -0.2433  0.5036  0.1068
21495SOL    HW166479   1.542   6.217   1.897 -0.0807  1.8507  2.0692
21495SOL    HW266480   1.517   6.098   1.988 -0.4065  0.8742  0.7337
21496SOL     OW66481   4.816   1.752   8.411 -0.5871  0.2389  0.1898
21496SOL    HW166482   4.870   1.686   8.456 -5.3776 -3.5268  1.3062
21496SOL    HW266483   4.828   1.832   8.463  0.6168 -1.5866  2.9892
21497SOL     OW66484   5.780   6.576   1.563  0.6795  0.0926  0.2019
21497SOL    HW166485   5.835   6.560   1.639  0.0887  1.1910  0.8933
21497SOL    HW266486   5.693   6.596   1.599  0.3784  0.5950 -0.7451
21498SOL     OW66487   7.731   7.077   5.841  0.1658 -0.3347 -0.5986
21498SOL    HW166488   7.673   7.106   5.911 -0.0486 -1.0434 -0.4859
21498SOL    HW266489   7.702   7.127   5.764  1.0959  1.2520  0.0346
21499SOL     OW66490   7.639   1.684   2.241 -0.8041 -0.1788 -0.4386
21499SOL    HW166491   7.608   1.722   2.323 -0.9234 -0.7012 -0.2388
21499SOL    HW266492   7.600   1.740   2.173  0.7626  1.3781 -0.1277
21500SOL     OW66493   7.364   6.240   7.543  0.3723  0.3928  0.2849
21500SOL    HW166494   7.456   6.226   7.564  0.5335  0.5716 -0.3004
21500SOL    HW266495   7.364   6.289   7.461 -0.2247  1.4121  0.8698
21501SOL     OW66496   4.164   5.014   3.461  0.1226  0.3305 -0.2402
21501SOL    HW166497   4.126   4.938   3.415 -0.0289 -0.9248  1.8274
21501SOL    HW266498   4.093   5.078   3.464 -0.3695 -0.1949 -0.3655
21502SOL     OW66499   8.474   2.681   0.837  0.4090  0.7240  0.6726
21502SOL    HW166500   8.484   2.748   0.770 -2.9540  3.5868  2.6793
21502SOL    HW266501   8.477   2.598   0.789  1.3826  2.4116 -2.4616
21503SOL     OW66502   5.622   8.500   6.778  0.7445 -0.0921 -0.5275
21503SOL    HW166503   5.628   8.594   6.760  1.7399  0.0295  0.3524
21503SOL    HW266504   5.704   8.463   6.745  0.1694 -0.7291 -1.2663
21504SOL     OW66505   2.576   3.004   4.923 -0.2117  0.5470  0.5978
21504SOL    HW166506   2.641   2.946   4.963 -0.1353  0.3279  0.1658
21504SOL    HW266507   2.583   3.086   4.971 -0.5750  0.0854  1.4689
21505SOL     OW66508   1.294   4.334   4.217 -1.2484 -0.2210 -0.1564
21505SOL    HW166509   1.262   4.374   4.298 -0.8528 -0.4171  0.1003
21505SOL    HW266510   1.215   4.301   4.174 -1.3905 -0.8140  0.5304
21506SOL     OW66511   5.487   3.037   2.887  0.2822  0.3321  0.1660
21506SOL    HW166512   5.504   3.092   2.963  1.6696 -0.3365  0.3670
21506SOL    HW266513   5.540   3.075   2.817 -0.1480  0.2998 -0.1856
21507SOL     OW66514   5.052   8.549   1.079 -0.0202 -0.2316 -0.0076
21507SOL    HW166515   4.962   8.549   1.111 -0.1376  1.3461 -0.2638
21507SOL    HW266516   5.044   8.558   0.984  0.3611  3.3077  0.1709
21508SOL     OW66517   8.530   7.187   2.224  1.0913  0.6555 -0.4421
21508SOL    HW166518   8.616   7.193   2.265  0.8643 -1.1937  0.4132
21508SOL    HW266519   8.514   7.093   2.217 -1.2058  0.9362  0.2194
21509SOL     OW66520   4.496   8.216   4.118  0.6821  0.5561 -0.4083
21509SOL    HW166521   4.564   8.269   4.160  0.2403 -0.4695  1.7266
21509SOL    HW266522   4.545   8.152   4.066  1.4230 -0.2012  1.1307
21510SOL     OW66523   1.879   4.343   5.017 -0.3101 -0.5765  0.1319
21510SOL    HW166524   1.820   4.400   4.968  0.8533  1.0054  0.5121
21510SOL    HW266525   1.964   4.352   4.972  0.7525  0.7835  2.2758
21511SOL     OW66526   3.014   8.020   2.697 -0.5264 -0.3591  0.2817
21511SOL    HW166527   2.934   8.072   2.709 -0.4985 -0.6843  2.0718
21511SOL    HW266528   3.055   8.018   2.783  1.1461 -0.6754 -0.4836
21512SOL     OW66529   3.250   0.853   8.742  0.6215  0.4084  1.0283
21512SOL    HW166530   3.262   0.763   8.711  0.4249  1.3372 -2.1124
21512SOL    HW266531   3.168   0.882   8.701  0.8289  2.1081  1.7358
21513SOL     OW66532   0.470   5.880   0.672  0.9756  0.1976 -0.3691
21513SOL    HW166533   0.485   5.917   0.585  0.4477 -1.6361 -1.2739
21513SOL    HW266534   0.496   5.950   0.732 -1.5526  2.7232 -1.9603
21514SOL     OW66535   1.553   7.320   2.567  0.5032 -0.0687  0.3960
21514SOL    HW166536   1.489   7.329   2.497  0.4239  1.2377  0.6143
21514SOL    HW266537   1.501   7.318   2.647  0.7142  0.8571  0.5664
21515SOL     OW66538   6.586   1.909   7.371  0.2602 -0.3860  0.5076
21515SOL    HW166539   6.564   1.824   7.332  0.5036 -0.5787  0.7820
21515SOL    HW266540   6.643   1.951   7.307 -0.7468  0.0429 -0.1286
21516SOL     OW66541   0.942   3.014   6.845 -0.3173 -0.3048  0.2615
21516SOL    HW166542   0.999   3.090   6.843  0.1150 -0.6205  0.4392
21516SOL    HW266543   0.943   2.980   6.756  0.6013 -0.9098  0.4864
21517SOL     OW66544   4.625   6.580   3.087  0.7750 -0.4897 -0.0765
21517SOL    HW166545   4.573   6.523   3.144  0.0932 -1.1228 -1.2781
21517SOL    HW266546   4.700   6.526   3.063  1.0473 -0.2337  0.1952
21518SOL     OW66547   8.856   0.605   2.509  0.0257  0.3971 -0.1239
21518SOL    HW166548   8.906   0.628   2.587  0.2268 -0.8579  0.1261
21518SOL    HW266549   8.882   0.671   2.444 -0.2016  1.4934  0.8747
21519SOL     OW66550   6.288   2.907   4.737  0.0709  0.2610  0.5203
21519SOL    HW166551   6.218   2.853   4.699  0.1052 -0.2256  1.1323
21519SOL    HW266552   6.343   2.931   4.662 -0.6877  0.5570  0.0532
21520SOL     OW66553   6.606   8.224   1.808 -0.2550 -0.3068  0.0494
21520SOL    HW166554   6.615   8.146   1.754  0.9192  0.3629 -0.7520
21520SOL    HW266555   6.585   8.190   1.895  3.1308 -1.7478  0.4417
21521SOL     OW66556   5.498   4.974   8.097 -0.1988  0.5260 -0.0979
21521SOL    HW166557   5.458   5.061   8.088 -2.9449 -0.6428 -0.1738
21521SOL    HW266558   5.427   4.913   8.078  1.4655 -1.7802  0.6441
21522SOL     OW66559   5.776   8.341   4.125 -0.2980 -0.2167 -0.0859
21522SOL    HW166560   5.773   8.412   4.189 -0.3744 -0.7746  0.5387
21522SOL    HW266561   5.866   8.343   4.092 -0.3992  0.3993 -0.3525
21523SOL     OW66562   7.938   4.831   4.174 -0.6113 -0.0529 -0.1706
21523SOL    HW166563   7.851   4.872   4.175 -0.7940 -0.4426  0.2354
21523SOL    HW266564   7.956   4.814   4.082 -0.9932 -0.0211 -0.2515
21524SOL     OW66565   5.652   6.618   1.139  0.0442 -0.0540  0.1762
21524SOL    HW166566   5.722   6.589   1.081  1.1550  1.6923  0.5635
21524SOL    HW266567   5.691   6.691   1.188 -2.3834  1.7381 -0.3961
21525SOL     OW66568   5.161   6.170   1.141 -0.2575 -0.2091 -0.4800
21525SOL    HW166569   5.176   6.229   1.214 -0.2116 -0.2142 -0.4850
21525SOL    HW266570   5.073   6.190   1.110 -0.3506 -0.3432 -0.2987
21526SOL     OW66571   2.517   6.316   5.322  0.0730 -0.4747 -0.0108
21526SOL    HW166572   2.453   6.321   5.392 -0.6787  0.7712 -0.7659
21526SOL    HW266573   2.518   6.223   5.297 -1.0976 -0.5820  0.3102
21527SOL     OW66574   7.145   4.470   5.035 -0.3293  0.9460 -0.2808
21527SOL    HW166575   7.107   4.489   4.950 -0.4463  1.4835 -0.1140
21527SOL    HW266576   7.232   4.435   5.016 -0.2965  1.2105 -0.6162
21528SOL     OW66577   2.839   4.398   7.735  0.3737 -0.0163  0.3963
21528SOL    HW166578   2.875   4.480   7.769  1.2259  0.5426 -1.6942
21528SOL    HW266579   2.748   4.420   7.713  0.3999  0.1751  0.4740
21529SOL     OW66580   8.305   4.117   7.321 -0.4700  0.2290  0.4949
21529SOL    HW166581   8.364   4.186   7.354  1.5281 -0.6393 -1.0543
21529SOL    HW266582   8.353   4.077   7.248 -2.5435 -1.3063 -0.1187
21530SOL     OW66583   4.322   8.300   2.397  0.1041 -0.0694 -0.2771
21530SOL    HW166584   4.308   8.346   2.480  1.0707  1.7028 -1.0323
21530SOL    HW266585   4.411   8.266   2.403  0.6476  1.1431 -1.0208
21531SOL     OW66586   3.170   6.789   6.786 -0.6104 -0.8039  0.1358
21531SOL    HW166587   3.198   6.787   6.694 -1.2351 -0.0347 -0.0801
21531SOL    HW266588   3.179   6.880   6.812  0.6538 -1.1988  1.2071
21532SOL     OW66589   2.486   2.209   4.709  0.5059 -0.2160 -0.3084
21532SOL    HW166590   2.418   2.214   4.777 -0.9748  1.2931 -1.7992
21532SOL    HW266591   2.439   2.224   4.627  2.3831 -1.0328 -1.6055
21533SOL     OW66592   2.910   5.352   8.890  0.2944  0.2196 -0.4465
21533SOL    HW166593   2.995   5.320   8.920 -0.6423  0.7482  3.2583
21533SOL    HW266594   2.904   5.441   8.926 -2.1942 -0.1777  0.2761
21534SOL     OW66595   7.432   0.331   0.224  0.6044  0.5104  0.3642
21534SOL    HW166596   7.464   0.308   0.311  0.2840  0.4685  0.4729
21534SOL    HW266597   7.459   0.258   0.168  0.5400  0.3883  0.4916
21535SOL     OW66598   6.437   4.486   5.252 -0.3542 -0.0122 -0.2877
21535SOL    HW166599   6.412   4.559   5.197 -1.6979  0.3469  0.7502
21535SOL    HW266600   6.531   4.476   5.237 -0.6364  0.1618 -2.4754
21536SOL     OW66601   3.442   1.391   8.511 -0.5124  0.1733  0.7505
21536SOL    HW166602   3.391   1.356   8.584 -4.4498  1.3587 -1.1441
21536SOL    HW266603   3.408   1.347   8.434  0.2906  2.1479 -0.8291
21537SOL     OW66604   2.671   5.654   1.465  0.6340  0.2498 -0.0790
21537SOL    HW166605   2.723   5.655   1.385  1.0747  1.3476  0.2008
21537SOL    HW266606   2.716   5.715   1.523  0.9731 -1.3346  1.4284
21538SOL     OW66607   1.127   1.769   4.228  0.3303  0.0210 -0.3309
21538SOL    HW166608   1.070   1.767   4.151 -1.3494 -1.5046  0.8565
21538SOL    HW266609   1.106   1.852   4.271  1.7158  1.1705 -1.7614
21539SOL     OW66610   0.071   2.640   2.732 -0.2634  0.1135 -0.3905
21539SOL    HW166611  -0.001   2.603   2.782  0.0880 -0.3848 -0.2478
21539SOL    HW266612   0.115   2.699   2.793  0.1202 -0.4374 -0.1274
21540SOL     OW66613   7.214   5.926   1.732 -0.0136 -0.2827 -0.6286
21540SOL    HW166614   7.256   5.957   1.652  0.4858  1.3946  0.2254
21540SOL    HW266615   7.202   6.005   1.785 -3.3011 -0.8236 -0.3489
21541SOL     OW66616   7.226   2.184   3.848 -0.3311 -0.0321 -0.4636
21541SOL    HW166617   7.254   2.169   3.758  0.4440  0.2837 -0.2887
21541SOL    HW266618   7.308   2.179   3.899 -0.4819  1.5701 -0.0050
21542SOL     OW66619   8.878   7.988   8.558 -0.1928  0.5698 -0.3243
21542SOL    HW166620   8.958   8.040   8.550 -0.2996  0.6249 -1.1212
21542SOL    HW266621   8.833   8.001   8.475 -1.3779  1.1078  0.3678
21543SOL     OW66622   3.239   4.198   6.675  0.6718  0.2438  0.2059
21543SOL    HW166623   3.306   4.152   6.625  0.2940 -0.4600  0.3293
21543SOL    HW266624   3.287   4.246   6.742  1.1235  0.5718 -0.3511
21544SOL     OW66625   4.964   3.856   0.263  0.6923 -0.5415 -0.5643
21544SOL    HW166626   5.042   3.813   0.298  0.4726 -0.0768  0.5505
21544SOL    HW266627   4.998   3.922   0.202  1.2067 -0.0215  0.2690
21545SOL     OW66628   7.394   6.033   1.542 -0.3355 -0.1089  0.1024
21545SOL    HW166629   7.419   5.988   1.461 -0.1454 -0.7736  0.5158
21545SOL    HW266630   7.403   6.126   1.522  0.9314 -0.2905 -0.2701
21546SOL     OW66631   5.902   8.802   5.807 -0.2595  0.5237  0.7052
21546SOL    HW166632   5.814   8.802   5.770 -0.5296  2.3242  1.2703
21546SOL    HW266633   5.946   8.729   5.763 -2.3358 -1.1386  1.2281
21547SOL     OW66634   6.299   7.479   8.210  0.0206 -0.2000  0.2921
21547SOL    HW166635   6.362   7.411   8.184  0.7892  0.0803  1.3485
21547SOL    HW266636   6.293   7.537   8.134  1.0003 -0.2673  0.1533
21548SOL     OW66637   1.167   7.928   1.560  0.0106  0.2155 -0.4770
21548SOL    HW166638   1.224   7.935   1.484  0.5921 -0.5180 -0.1282
21548SOL    HW266639   1.082   7.961   1.530  0.4307  0.6685 -1.2059
21549SOL     OW66640   8.103   4.002   5.964  0.5096 -0.1922  0.1520
21549SOL    HW166641   8.034   3.991   5.899  1.0077  1.4635 -0.7073
21549SOL    HW266642   8.058   4.026   6.044  0.0355 -0.0373 -0.1601
21550SOL     OW66643   3.829   5.316   3.691  0.2968  0.1470  0.2867
21550SOL    HW166644   3.856   5.256   3.622 -0.9301  0.4308 -0.4675
21550SOL    HW266645   3.882   5.291   3.767  0.3860 -1.3480 -0.2459
21551SOL     OW66646   5.186   4.028   7.641  0.2563 -0.2935 -0.7144
21551SOL    HW166647   5.218   4.084   7.571  1.3897 -0.6279 -0.4891
21551SOL    HW266648   5.163   3.946   7.597 -1.6087  0.3744 -1.0768
21552SOL     OW66649   0.422   1.802   2.105 -0.3061  0.0330 -0.0119
21552SOL    HW166650   0.383   1.823   2.190  2.2849  1.4214  0.9399
21552SOL    HW266651   0.447   1.710   2.113 -1.6882 -0.3641  0.0122
21553SOL     OW66652   2.516   4.726   4.775 -0.0131 -0.7786 -0.2460
21553SOL    HW166653   2.580   4.707   4.843  0.4764 -0.3301 -0.5725
21553SOL    HW266654   2.450   4.658   4.784  1.6875 -2.6951 -1.3880
21554SOL     OW66655   7.306   5.767   8.537  0.1357  0.0376  0.5697
21554SOL    HW166656   7.230   5.709   8.528 -0.5870  0.9624  0.5707
21554SOL    HW266657   7.368   5.735   8.472 -0.9443  0.3168 -0.6383
21555SOL     OW66658   6.632   5.083   5.851 -0.3055  0.4464  0.2222
21555SOL    HW166659   6.667   5.132   5.776  1.1736  0.2607  0.7484
21555SOL    HW266660   6.686   5.004   5.855 -1.0368 -0.0347  0.8774
21556SOL     OW66661   8.282   4.530   1.838 -0.1809  0.3065 -0.3225
21556SOL    HW166662   8.306   4.603   1.895 -0.7624  0.0136  0.3182
21556SOL    HW266663   8.325   4.549   1.754 -1.4210  2.0890 -0.6011
21557SOL     OW66664   2.999   1.809   1.867 -0.2531  0.3092 -0.1693
21557SOL    HW166665   3.010   1.897   1.903  0.5239 -0.6088  2.0362
21557SOL    HW266666   2.908   1.806   1.837 -0.6776  1.4672  0.9294
21558SOL     OW66667   5.281   8.239   6.627 -0.2180  0.0688 -0.4454
21558SOL    HW166668   5.341   8.177   6.585  1.0858 -0.1996  1.6853
21558SOL    HW266669   5.209   8.186   6.659 -0.4483  0.0670 -0.9487
21559SOL     OW66670   4.709   1.679   7.749  0.6229 -0.2984  0.1558
21559SOL    HW166671   4.745   1.611   7.693  1.5081 -1.3107  1.8681
21559SOL    HW266672   4.619   1.651   7.767  0.9850 -1.0758  0.8601
21560SOL     OW66673   5.026   4.011   1.260 -0.7362 -0.6997  0.2584
21560SOL    HW166674   5.024   3.916   1.268 -1.4932 -0.7446 -0.3232
21560SOL    HW266675   5.079   4.028   1.182 -0.8674 -0.6652  0.1753
21561SOL     OW66676   6.324   2.163   5.842 -0.4480 -0.0858  0.2342
21561SOL    HW166677   6.258   2.231   5.843  0.6178  0.9977 -0.4389
21561SOL    HW266678   6.275   2.082   5.823 -2.0314  0.0582  3.1517
21562SOL     OW66679   4.059   5.573   6.621 -0.3619 -0.0226 -0.2834
21562SOL    HW166680   4.059   5.484   6.657  1.2587  0.0819  0.0833
21562SOL    HW266681   4.041   5.561   6.527 -0.4123 -0.7160 -0.1898
21563SOL     OW66682   0.479   8.332   6.932 -0.3318  0.6462 -0.1631
21563SOL    HW166683   0.519   8.378   6.858  0.4027  1.1226  0.5086
21563SOL    HW266684   0.405   8.387   6.957  0.1852  1.1614  0.2565
21564SOL     OW66685   1.726   7.658   0.391 -0.2768  0.5563 -0.4569
21564SOL    HW166686   1.777   7.611   0.458 -1.8088  0.1866  0.4892
21564SOL    HW266687   1.788   7.722   0.355  0.9799 -0.1533  0.3463
21565SOL     OW66688   1.130   0.116   2.473  0.3752  0.3922  0.2532
21565SOL    HW166689   1.155   0.122   2.381  1.4559 -0.1156  0.4879
21565SOL    HW266690   1.108   0.205   2.498  0.7425  0.6535 -0.3249
21566SOL     OW66691   0.569   0.503   0.435 -0.7712 -0.0849  0.3266
21566SOL    HW166692   0.621   0.461   0.504 -1.5060 -1.1560  0.2425
21566SOL    HW266693   0.633   0.554   0.385  0.1236 -0.9444  0.5613
21567SOL     OW66694   2.974   8.411   0.077  0.3297 -0.9965  0.8539
21567SOL    HW166695   3.003   8.394  -0.013 -1.4446 -0.1370  0.0851
21567SOL    HW266696   2.930   8.330   0.103  1.0501 -1.3338  1.0609
21568SOL     OW66697   2.099   0.138   5.904 -0.0638  0.5806 -0.3784
21568SOL    HW166698   2.044   0.066   5.874  0.1744  0.6650 -1.0245
21568SOL    HW266699   2.156   0.158   5.830  2.1961 -0.7998  0.8466
21569SOL     OW66700   6.983   2.137   7.041 -0.3310  0.3144  0.7175
21569SOL    HW166701   7.062   2.150   7.094  1.5154  0.4843 -1.8386
21569SOL    HW266702   7.010   2.075   6.973 -2.0515  1.2103 -0.8740
21570SOL     OW66703   6.881   8.642   2.455  0.2889 -0.4920  0.4653
21570SOL    HW166704   6.948   8.659   2.388  1.2030  0.2244  1.5329
21570SOL    HW266705   6.850   8.728   2.480  0.5932 -0.7064  1.6060
21571SOL     OW66706   4.935   2.084   2.656 -0.2894 -0.3360 -0.2829
21571SOL    HW166707   4.847   2.055   2.679 -0.7276  0.6874 -0.6316
21571SOL    HW266708   4.978   2.005   2.623 -1.8113 -0.4282 -2.2658
21572SOL     OW66709   6.906   8.106   0.726 -0.0446  0.1873  0.3801
21572SOL    HW166710   6.826   8.064   0.693 -0.6925  0.6976  1.2868
21572SOL    HW266711   6.878   8.155   0.803  1.1103  0.5418  0.5904
21573SOL     OW66712   0.740   3.613   3.882 -0.1633 -0.5595  0.1424
21573SOL    HW166713   0.728   3.611   3.787  1.2842 -1.0544 -0.0562
21573SOL    HW266714   0.655   3.642   3.916 -1.0894 -1.5097 -1.2196
21574SOL     OW66715   8.485   7.321   3.303 -0.2908  0.5960 -0.1230
21574SOL    HW166716   8.581   7.326   3.300 -0.2692  0.4061  0.2374
21574SOL    HW266717   8.466   7.229   3.286 -0.4037  0.6011 -0.0243
21575SOL     OW66718   0.070   2.654   7.868  0.4263  0.2162 -0.2267
21575SOL    HW166719   0.143   2.691   7.917  0.5950 -0.8216  0.3431
21575SOL    HW266720   0.083   2.684   7.778  0.6232  1.3957  0.1752
21576SOL     OW66721   1.981   8.058   3.317  0.5069  0.0602 -0.1157
21576SOL    HW166722   2.072   8.037   3.298  1.3912  2.1319  1.4369
21576SOL    HW266723   1.947   7.980   3.362  0.8401 -1.5161 -2.4124
21577SOL     OW66724   4.236   4.273   1.661  0.6335 -0.1698  0.2150
21577SOL    HW166725   4.149   4.275   1.620 -0.0677  1.0084  1.6778
21577SOL    HW266726   4.296   4.293   1.589 -0.3623 -0.2690 -0.6756
21578SOL     OW66727   8.245   5.137   3.228 -0.6659 -0.1036 -0.2101
21578SOL    HW166728   8.158   5.103   3.209 -0.8461 -0.4587  1.1770
21578SOL    HW266729   8.239   5.174   3.316  0.7584 -0.8140  0.2332
21579SOL     OW66730   0.779   1.045   0.111 -0.1451 -0.2122  0.0378
21579SOL    HW166731   0.723   0.970   0.132 -0.7752  0.0538 -0.6513
21579SOL    HW266732   0.718   1.119   0.104  0.4427  0.3232  0.4959
21580SOL     OW66733   8.675   0.959   1.571 -0.1684 -0.3362 -1.0350
21580SOL    HW166734   8.763   0.939   1.603 -0.0049  0.7622 -0.7784
21580SOL    HW266735   8.687   1.029   1.507 -1.0507  1.3188  0.5464
21581SOL     OW66736   6.537   5.087   8.226 -0.1659  0.1254 -0.0384
21581SOL    HW166737   6.550   5.129   8.312  1.8146 -1.1565  0.3695
21581SOL    HW266738   6.614   5.113   8.175 -0.6242 -0.2480 -0.9401
21582SOL     OW66739   8.662   7.062   0.705  0.0812 -0.2336 -0.2511
21582SOL    HW166740   8.610   7.137   0.735  0.2978 -0.4162  0.5924
21582SOL    HW266741   8.703   7.093   0.624 -0.1494  0.4220 -0.1238
21583SOL     OW66742   5.233   6.456   0.923  0.3947  0.3776  0.4664
21583SOL    HW166743   5.200   6.465   0.833  0.9319  0.2857  0.2563
21583SOL    HW266744   5.305   6.519   0.928 -0.4893  1.3554  1.2537
21584SOL     OW66745   1.284   6.089   4.372 -0.3318 -0.2868  0.5008
21584SOL    HW166746   1.324   6.160   4.322  2.7709 -2.2499 -0.1231
21584SOL    HW266747   1.239   6.035   4.306 -2.6823  0.9829  0.9711
21585SOL     OW66748   1.497   2.740   7.606  0.5094  0.2184  0.0307
21585SOL    HW166749   1.495   2.815   7.547  0.3736  0.5576  0.4624
21585SOL    HW266750   1.409   2.703   7.601  0.4848  0.2737  0.0472
21586SOL     OW66751   1.605   2.141   2.691 -0.4886  0.3492  0.5026
21586SOL    HW166752   1.552   2.135   2.612  0.0298 -2.0270  0.2382
21586SOL    HW266753   1.545   2.124   2.763 -0.2864 -1.6364  0.2555
21587SOL     OW66754   3.117   1.341   3.742  0.2061 -0.0794 -0.2868
21587SOL    HW166755   3.174   1.282   3.692 -0.0153  0.0755 -0.7308
21587SOL    HW266756   3.053   1.283   3.784  0.7064 -0.2550  0.2350
21588SOL     OW66757   0.347   0.619   1.721  0.3551  0.0712 -0.6467
21588SOL    HW166758   0.386   0.694   1.676  0.7703 -0.0167 -0.4341
21588SOL    HW266759   0.351   0.642   1.814 -1.5810  0.7800 -0.6983
21589SOL     OW66760   8.755   3.755   3.600 -0.5406 -0.4624  0.1230
21589SOL    HW166761   8.735   3.810   3.525 -0.3876  0.5844  0.8339
21589SOL    HW266762   8.846   3.728   3.587 -0.6077 -0.5229 -0.2159
21590SOL     OW66763   5.416   2.722   2.150 -0.3259  0.6134  0.1580
21590SOL    HW166764   5.476   2.790   2.121 -0.3163  0.6625  0.2930
21590SOL    HW266765   5.373   2.759   2.227  1.9118 -0.6760  2.1662
21591SOL     OW66766   7.855   8.850   3.702 -0.2214  0.2179 -0.6135
21591SOL    HW166767   7.789   8.782   3.689  0.8511 -1.2833  1.1780
21591SOL    HW266768   7.916   8.839   3.629 -0.0013 -0.8641 -0.2920
21592SOL     OW66769   8.188   5.943   1.192 -0.3452  0.3637  0.4028
21592SOL    HW166770   8.167   5.859   1.232  1.2818 -0.4267 -0.2887
21592SOL    HW266771   8.207   6.001   1.266  1.0123 -0.6160  0.8626
21593SOL     OW66772   5.870   8.443   3.041  0.1785  0.5232 -0.1611
21593SOL    HW166773   5.871   8.374   3.107 -0.6620  0.0258 -0.6553
21593SOL    HW266774   5.782   8.480   3.046  0.1480  0.5632 -0.9237
21594SOL     OW66775   5.789   0.993   1.741 -0.1849  0.3282  0.6679
21594SOL    HW166776   5.763   1.064   1.800 -0.6665  1.7436 -1.1546
21594SOL    HW266777   5.884   0.996   1.741 -0.1893  0.6314  0.9925
21595SOL     OW66778   0.899   6.165   5.675 -0.5348 -0.2074 -0.4262
21595SOL    HW166779   0.962   6.104   5.714 -0.3167 -0.4223 -1.1064
21595SOL    HW266780   0.909   6.246   5.725  2.2791  0.7029 -2.2489
21596SOL     OW66781   7.250   5.074   7.592  0.0499 -0.7130  0.0735
21596SOL    HW166782   7.297   5.010   7.644  2.2743  1.5921  1.0907
21596SOL    HW266783   7.312   5.101   7.525 -0.3071  1.3013  0.4892
21597SOL     OW66784   2.782   0.692   0.294 -0.3745  0.3229  0.0849
21597SOL    HW166785   2.857   0.654   0.250 -0.6941 -1.4769  1.0253
21597SOL    HW266786   2.786   0.659   0.383 -1.8276  0.8387  0.3812
21598SOL     OW66787   8.200   0.311   3.027  0.6309  0.3352 -0.3318
21598SOL    HW166788   8.169   0.306   3.118  1.0438 -0.0235 -0.2065
21598SOL    HW266789   8.294   0.329   3.035  0.9737 -1.1556 -0.6474
21599SOL     OW66790   8.171   8.564   1.771 -0.5955  0.2193 -0.2658
21599SOL    HW166791   8.096   8.552   1.714 -0.9129 -0.4205  0.2848
21599SOL    HW266792   8.152   8.512   1.848 -0.1192  0.9868  0.3889
21600SOL     OW66793   3.837   4.114   8.069 -0.3444 -0.7394 -0.0916
21600SOL    HW166794   3.761   4.056   8.056  0.3153 -1.4466 -0.9252
21600SOL    HW266795   3.889   4.071   8.137 -1.0601  0.1545  1.0597
21601SOL     OW66796   1.338   1.428   4.398 -0.4372 -0.1446 -0.5192
21601SOL    HW166797   1.258   1.384   4.369  0.0646 -1.7694  0.4641
21601SOL    HW266798   1.409   1.379   4.356  0.1260 -0.1002  0.3609
21602SOL     OW66799   3.255   4.205   8.071 -0.5596  0.4856 -0.1318
21602SOL    HW166800   3.166   4.194   8.036 -0.4197 -0.9000 -0.0921
21602SOL    HW266801   3.311   4.204   7.993 -0.5398  1.1224 -0.1361
21603SOL     OW66802   2.247   8.089   2.821  0.2614  0.1420 -0.3715
21603SOL    HW166803   2.217   8.014   2.873 -0.2133  0.6452  0.0887
21603SOL    HW266804   2.221   8.067   2.731  0.2620 -0.3138 -0.2629
21604SOL     OW66805   5.158   8.637   6.678  0.1501  0.2152 -0.1381
21604SOL    HW166806   5.227   8.585   6.719  0.3613  1.4721  1.1753
21604SOL    HW266807   5.104   8.573   6.632  1.4505 -0.9400 -0.1127
21605SOL     OW66808   2.284   1.739   5.806 -0.6525 -0.3474  0.1668
21605SOL    HW166809   2.207   1.791   5.830 -0.2117 -0.3695  1.7658
21605SOL    HW266810   2.286   1.669   5.870  0.6348 -0.4113  0.0742
21606SOL     OW66811   5.140   7.792   0.539  0.2499  0.5576  0.0985
21606SOL    HW166812   5.208   7.849   0.501 -0.6204  1.4670 -0.1332
21606SOL    HW266813   5.189   7.727   0.589  1.4789 -0.6369 -2.4557
21607SOL     OW66814   6.518   7.264   0.963  0.2495 -0.7689  0.2119
21607SOL    HW166815   6.532   7.176   0.997  0.4081  0.6314  4.3646
21607SOL    HW266816   6.607   7.297   0.945  0.2481 -1.1416 -0.4951
21608SOL     OW66817   0.475   1.133   8.397  0.1323  0.2410 -0.2705
21608SOL    HW166818   0.447   1.133   8.305  2.0713 -1.1501 -0.9085
21608SOL    HW266819   0.393   1.129   8.446 -1.0761  2.9825 -1.8251
21609SOL     OW66820   7.000   7.601   5.979 -0.1124 -0.2871  0.2169
21609SOL    HW166821   7.023   7.638   6.064 -2.8675 -0.4789  1.1241
21609SOL    HW266822   6.942   7.665   5.939  1.3694 -0.0612 -1.7304
21610SOL     OW66823   0.425   6.374   7.482 -0.2539 -0.2529  0.3615
21610SOL    HW166824   0.457   6.394   7.570  0.1666  1.0949 -0.0731
21610SOL    HW266825   0.462   6.443   7.427  0.8547 -1.9800 -1.1772
21611SOL     OW66826   0.157   6.536   2.829 -0.1379 -0.2037  0.5060
21611SOL    HW166827   0.069   6.555   2.797 -0.1968  1.6134  1.5878
21611SOL    HW266828   0.185   6.618   2.870  0.9506 -1.6065  2.7166
21612SOL     OW66829   4.684   3.284   0.925  0.0294  0.1681  0.3530
21612SOL    HW166830   4.612   3.248   0.978  0.1908  0.6087  0.8790
21612SOL    HW266831   4.684   3.230   0.846 -2.2751  1.4769 -0.6482
21613SOL     OW66832   7.308   3.161   5.611  0.0483 -0.5784 -0.3299
21613SOL    HW166833   7.240   3.194   5.670  0.2706 -1.2665  0.3165
21613SOL    HW266834   7.265   3.090   5.563  0.0545 -0.4304 -0.5553
21614SOL     OW66835   5.719   5.478   1.612  0.3086  0.0301  0.5084
21614SOL    HW166836   5.789   5.445   1.556  0.8555 -0.1534  1.2856
21614SOL    HW266837   5.645   5.420   1.595  0.9791 -1.0407  1.1817
21615SOL     OW66838   5.690   1.543   8.131  0.5618 -0.5204 -0.8211
21615SOL    HW166839   5.668   1.545   8.224  1.3476 -1.3660 -0.5980
21615SOL    HW266840   5.745   1.465   8.121  0.4195 -0.4915 -2.0110
21616SOL     OW66841   4.131   6.777   2.797  0.3193  0.2773  0.2877
21616SOL    HW166842   4.227   6.770   2.797  0.2439 -1.3820 -0.3987
21616SOL    HW266843   4.105   6.739   2.713 -0.9384  0.9711  0.3427
21617SOL     OW66844   7.144   2.585   5.107 -0.1824  0.2373  0.1163
21617SOL    HW166845   7.203   2.514   5.134  0.3069  0.0179 -1.4160
21617SOL    HW266846   7.200   2.644   5.057 -0.9004  0.9819  0.1667
21618SOL     OW66847   3.254   4.712   8.134 -0.0480 -0.1828 -0.2789
21618SOL    HW166848   3.324   4.768   8.101  1.0802 -1.8449 -0.8313
21618SOL    HW266849   3.298   4.634   8.166 -1.6194 -1.1367 -0.3282
21619SOL     OW66850   3.168   3.042   7.380 -0.1665  0.5723 -0.1634
21619SOL    HW166851   3.261   3.064   7.376  0.0964  0.1542  2.2288
21619SOL    HW266852   3.129   3.113   7.431 -1.5906  1.8027 -2.7859
21620SOL     OW66853   5.839   2.379   6.329 -0.3533 -0.2099 -0.5223
21620SOL    HW166854   5.776   2.407   6.395 -0.1143  1.0962 -0.8169
21620SOL    HW266855   5.792   2.386   6.246  0.4353  1.8233 -0.8646
21621SOL     OW66856   5.649   2.047   0.528 -0.3267 -0.1274  0.1192
21621SOL    HW166857   5.730   2.019   0.485  0.2132  0.4630  0.7343
21621SOL    HW266858   5.673   2.059   0.620 -0.4576  2.5283 -0.1123
21622SOL     OW66859   6.945   3.216   4.402 -0.6430 -0.9670 -0.4095
21622SOL    HW166860   6.934   3.198   4.309 -0.7698 -0.2228 -0.5393
21622SOL    HW266861   6.876   3.279   4.423  0.7608  0.5974 -0.3047
21623SOL     OW66862   0.554   0.353   1.681  0.6313  0.1362 -0.2820
21623SOL    HW166863   0.499   0.380   1.607  0.2764  3.5682  1.0759
21623SOL    HW266864   0.644   0.365   1.650  0.4790  2.0737 -0.0433
21624SOL     OW66865   3.476   1.367   6.050  0.2495  0.2402  0.5464
21624SOL    HW166866   3.547   1.393   6.109  0.2111  2.2482 -0.2083
21624SOL    HW266867   3.484   1.426   5.976 -2.5318  0.9039  0.6663
21625SOL     OW66868   8.205   0.109   5.835  0.2138 -0.0117  0.4567
21625SOL    HW166869   8.173   0.124   5.746  1.8283  1.0443  0.0243
21625SOL    HW266870   8.134   0.060   5.877 -0.7916 -0.1131 -1.2467
21626SOL     OW66871   0.468   4.724   8.851 -0.0119 -0.1832  0.1380
21626SOL    HW166872   0.479   4.689   8.939 -1.1697 -1.6539 -0.2767
21626SOL    HW266873   0.532   4.676   8.798 -0.9382 -1.0111 -0.2495
21627SOL     OW66874   6.703   6.571   0.020  0.3845 -0.3500  0.1325
21627SOL    HW166875   6.681   6.506   0.087  0.8489  0.0952  0.7336
21627SOL    HW266876   6.789   6.604   0.046  0.1284  0.5476 -0.1212
21628SOL     OW66877   3.520   4.380   1.311 -0.4229 -0.6252 -0.4241
21628SOL    HW166878   3.607   4.341   1.304  0.0762  0.2184  0.7470
21628SOL    HW266879   3.504   4.419   1.224 -0.4775 -2.4129 -1.2628
21629SOL     OW66880   4.468   5.871   6.998  0.0044  0.3622 -0.0806
21629SOL    HW166881   4.496   5.846   6.910 -0.9736 -0.3306 -0.2193
21629SOL    HW266882   4.378   5.839   7.005 -0.7361  2.3843  0.3819
21630SOL     OW66883   5.335   8.023   0.659  0.3873  0.6110 -0.1145
21630SOL    HW166884   5.286   8.087   0.607 -1.6411 -0.0793  0.8202
21630SOL    HW266885   5.417   8.010   0.611 -0.5512  1.4680 -2.0614
21631SOL     OW66886   2.141   0.567   3.760 -0.1134  0.1509 -0.1431
21631SOL    HW166887   2.213   0.513   3.792 -0.3762 -1.2306 -1.7609
21631SOL    HW266888   2.110   0.614   3.838 -0.1694 -2.3555  1.4459
21632SOL     OW66889   3.293   7.220   8.701  0.2341  0.3580 -0.2792
21632SOL    HW166890   3.296   7.292   8.638 -1.3202  1.2754  0.6409
21632SOL    HW266891   3.355   7.245   8.770  0.1154  0.5371 -0.2380
21633SOL     OW66892   7.382   8.792   3.159  0.1567  0.1692  0.6423
21633SOL    HW166893   7.298   8.838   3.160  0.1887  0.2226  0.8186
21633SOL    HW266894   7.442   8.851   3.205  0.6647  0.8414 -0.8107
21634SOL     OW66895   1.803   2.579   4.214  0.1925  0.2378  0.0391
21634SOL    HW166896   1.829   2.487   4.203 -2.4905 -0.5912 -0.0148
21634SOL    HW266897   1.837   2.623   4.136 -0.2698 -1.1762 -1.0042
21635SOL     OW66898   0.025   2.197   3.386  0.3235 -0.2740 -1.1533
21635SOL    HW166899   0.110   2.236   3.362  0.9852 -0.5035  0.6985
21635SOL    HW266900   0.033   2.105   3.359  0.2262 -0.0386 -2.0073
21636SOL     OW66901   1.372   6.652   1.373  0.5568 -0.6039  0.4545
21636SOL    HW166902   1.323   6.716   1.425  1.5635  0.1959  0.4305
21636SOL    HW266903   1.415   6.597   1.437  0.6441 -0.5158  0.4717
21637SOL     OW66904   1.302   8.837   3.933 -0.1983 -0.1924  0.5163
21637SOL    HW166905   1.367   8.814   3.867 -0.2791 -0.1573  0.4229
21637SOL    HW266906   1.308   8.932   3.940 -0.0051 -0.2227  0.7542
21638SOL     OW66907   0.127   4.855   6.332 -0.2661 -0.0654 -0.0171
21638SOL    HW166908   0.166   4.934   6.371 -2.2310  1.0740 -0.2115
21638SOL    HW266909   0.177   4.842   6.251 -1.0732  2.1388 -0.9547
21639SOL     OW66910   5.715   2.925   4.681  0.1120 -0.2477 -0.6903
21639SOL    HW166911   5.679   2.858   4.738 -1.4810  0.8747 -0.3174
21639SOL    HW266912   5.651   2.935   4.611 -0.6496  2.1072  0.2240
21640SOL     OW66913   7.065   3.801   6.093  0.1138 -0.6995 -0.2425
21640SOL    HW166914   7.024   3.740   6.031  0.4059 -1.6318  0.4706
21640SOL    HW266915   7.147   3.825   6.051 -0.2655 -0.3359 -0.7927
21641SOL     OW66916   2.298   4.698   8.107  0.1149 -0.3285 -1.0917
21641SOL    HW166917   2.343   4.758   8.048 -0.4170  2.2928  0.9453
21641SOL    HW266918   2.208   4.695   8.074 -0.1827  1.1260 -0.4781
21642SOL     OW66919   5.758   2.928   4.104  0.1781  0.0809 -0.5348
21642SOL    HW166920   5.722   2.873   4.174  1.0760 -2.7881 -2.1619
21642SOL    HW266921   5.853   2.928   4.121  0.1529  1.6160 -0.2915
21643SOL     OW66922   4.697   6.052   0.960  0.2721  0.0351  0.0486
21643SOL    HW166923   4.648   6.016   0.887  0.4174  0.4683 -0.2669
21643SOL    HW266924   4.694   6.147   0.947  1.5551  0.0660 -0.2203
21644SOL     OW66925   5.726   2.845   8.506 -0.3105 -0.3229  0.2775
21644SOL    HW166926   5.750   2.880   8.591 -2.2362  0.8101  0.4224
21644SOL    HW266927   5.762   2.757   8.505  1.3519  0.2937  1.4874
21645SOL     OW66928   5.615   7.796   4.529 -0.0131  0.3079  0.4482
21645SOL    HW166929   5.523   7.797   4.501  0.6309  1.4969 -1.9178
21645SOL    HW266930   5.614   7.836   4.616 -1.4909  2.9634 -0.6666
21646SOL     OW66931   2.830   5.509   1.236  0.2886  0.2095  0.0121
21646SOL    HW166932   2.752   5.509   1.181 -0.2571  0.0681  0.7731
21646SOL    HW266933   2.901   5.535   1.177 -0.3241  0.3050 -0.6945
21647SOL     OW66934   7.343   4.651   4.596  0.0181 -0.5775  0.2249
21647SOL    HW166935   7.419   4.702   4.570  0.5372 -1.1411  0.6083
21647SOL    HW266936   7.274   4.678   4.536  0.7815 -0.7448 -0.7507
21648SOL     OW66937   5.718   6.826   3.845 -0.6803 -0.3463  0.7009
21648SOL    HW166938   5.647   6.777   3.887 -0.6444 -0.1043  1.0513
21648SOL    HW266939   5.687   6.917   3.845 -0.7315 -0.3582  0.0884
21649SOL     OW66940   1.691   6.704   0.798  0.0320  0.4917 -0.4232
21649SOL    HW166941   1.708   6.783   0.747  1.2110 -0.8063 -2.1503
21649SOL    HW266942   1.776   6.680   0.834 -0.1231 -0.4940 -0.6947
21650SOL     OW66943   7.680   7.238   5.585  0.4698 -0.4102 -0.4016
21650SOL    HW166944   7.660   7.152   5.549  0.4860 -0.3991 -0.4366
21650SOL    HW266945   7.727   7.283   5.515 -1.5106  0.4417 -1.2408
21651SOL     OW66946   7.930   4.490   1.152 -0.7252  0.0266 -0.3046
21651SOL    HW166947   7.947   4.578   1.186  1.2777 -0.6224  0.5620
21651SOL    HW266948   8.005   4.472   1.094  0.4994 -2.1322  1.7690
21652SOL     OW66949   8.170   8.401   2.424  0.4172 -0.4199  0.2092
21652SOL    HW166950   8.111   8.476   2.414  1.3546  0.6286  2.0776
21652SOL    HW266951   8.193   8.377   2.334 -0.3127  1.2084 -0.4569
21653SOL     OW66952   4.278   2.826   1.915  0.1348 -0.4571 -0.4949
21653SOL    HW166953   4.189   2.798   1.934 -1.0026  2.4097 -0.9514
21653SOL    HW266954   4.317   2.844   2.000  0.0322 -1.0709 -0.3196
21654SOL     OW66955   4.074   7.849   2.753  0.2562  0.4080 -0.4553
21654SOL    HW166956   4.052   7.835   2.845  0.8496 -2.4738 -0.6682
21654SOL    HW266957   4.170   7.848   2.750  0.2375  0.2155 -1.1511
21655SOL     OW66958   0.700   4.395   0.856 -0.1108 -0.0595  0.3187
21655SOL    HW166959   0.738   4.326   0.801 -1.0002 -0.5359  0.2833
21655SOL    HW266960   0.718   4.476   0.807 -0.3993 -0.4206 -0.4068
21656SOL     OW66961   7.891   6.045   8.249 -0.6159 -0.3619 -0.1631
21656SOL    HW166962   7.836   6.061   8.172 -0.8616 -0.0932  0.0646
21656SOL    HW266963   7.888   6.127   8.298 -1.7788 -1.0509  0.9676
21657SOL     OW66964   6.492   8.121   5.589  0.2820  0.4229  0.4763
21657SOL    HW166965   6.449   8.112   5.503  1.5112  2.4436 -0.4231
21657SOL    HW266966   6.427   8.166   5.643  0.9775  3.1932 -0.7903
21658SOL     OW66967   8.236   7.749   3.770 -0.0361 -0.4064 -0.1176
21658SOL    HW166968   8.217   7.664   3.811  0.1340 -0.2033  0.3914
21658SOL    HW266969   8.232   7.731   3.676  0.1107 -1.0051 -0.0162
21659SOL     OW66970   2.205   0.345   4.056 -0.6672 -0.1263  0.4147
21659SOL    HW166971   2.124   0.295   4.050 -1.4652  1.2632 -1.4053
21659SOL    HW266972   2.206   0.398   3.977  0.3943  2.3035  1.9298
21660SOL     OW66973   7.797   6.427   8.126  0.0967 -0.2536 -0.6191
21660SOL    HW166974   7.885   6.433   8.163 -0.0269  1.6604 -0.5297
21660SOL    HW266975   7.805   6.465   8.039 -0.6897  0.2213 -0.4970
21661SOL     OW66976   5.564   7.877   4.784 -0.3319  0.1482 -0.1373
21661SOL    HW166977   5.517   7.799   4.813  0.5812 -0.4396 -0.1756
21661SOL    HW266978   5.505   7.949   4.804 -1.1234 -0.5310  0.0710
21662SOL     OW66979   8.372   3.245   1.290  0.0843 -0.5269  0.0289
21662SOL    HW166980   8.304   3.188   1.326  0.2663 -0.6381  0.1974
21662SOL    HW266981   8.438   3.185   1.256  0.3375 -0.4170  0.3207
21663SOL     OW66982   4.463   2.606   4.433 -0.2738  0.4117 -0.0055
21663SOL    HW166983   4.557   2.610   4.446 -0.3991  1.4551  0.6238
21663SOL    HW266984   4.430   2.560   4.510 -0.5402  2.5235  1.2096
21664SOL     OW66985   1.096   7.484   5.859 -0.2107 -0.0037  0.0097
21664SOL    HW166986   1.007   7.462   5.830 -1.0705  0.9484  1.7885
21664SOL    HW266987   1.087   7.571   5.898  1.5836  0.2289 -0.0446
21665SOL     OW66988   5.569   6.320   6.114 -0.2455  0.1579  0.3562
21665SOL    HW166989   5.497   6.348   6.058  0.1077 -0.2963 -0.3384
21665SOL    HW266990   5.633   6.282   6.054  0.2313 -0.1563  1.0467
21666SOL     OW66991   8.884   6.168   5.951 -0.0194  0.4410  0.4307
21666SOL    HW166992   8.928   6.094   5.994  0.5410 -0.0881 -1.0061
21666SOL    HW266993   8.956   6.220   5.914 -0.5535 -0.2337 -1.6408
21667SOL     OW66994   2.553   8.457   7.673 -0.3453  0.4156 -0.2546
21667SOL    HW166995   2.613   8.531   7.658  0.1761 -0.2298 -1.6063
21667SOL    HW266996   2.573   8.396   7.601 -1.2188 -0.7400  0.4520
21668SOL     OW66997   5.162   7.040   8.369 -0.0036 -0.0897  0.0694
21668SOL    HW166998   5.228   7.075   8.429 -1.9174  0.8177  1.7893
21668SOL    HW266999   5.114   7.117   8.339  0.4876 -0.5943 -2.2200
21669SOL     OW67000   2.613   0.970   5.945 -0.5585 -0.0373  0.3191
21669SOL    HW167001   2.691   0.920   5.970 -0.2349 -0.1182 -0.8032
21669SOL    HW267002   2.607   0.960   5.850 -0.6344  1.8448  0.0820
21670SOL     OW67003   4.807   7.015   0.722 -0.4074 -0.3951 -0.2816
21670SOL    HW167004   4.884   7.012   0.666  0.6969  0.6352  1.1108
21670SOL    HW267005   4.779   7.107   0.719 -0.2089 -0.2728  0.9607
21671SOL     OW67006   7.221   6.218   0.114 -0.9933  0.1396  0.1785
21671SOL    HW167007   7.162   6.293   0.116 -1.2732 -0.0412 -0.7511
21671SOL    HW267008   7.245   6.204   0.205 -0.3174  1.8402  0.2945
21672SOL     OW67009   2.572   3.238   4.634 -0.5671  0.3000 -0.2120
21672SOL    HW167010   2.660   3.228   4.599 -0.8907  0.2408 -1.0505
21672SOL    HW267011   2.583   3.240   4.729  0.5290  2.2715 -0.3294
21673SOL     OW67012   6.391   2.677   4.240  0.8710  0.3621  0.0197
21673SOL    HW167013   6.406   2.583   4.242  1.7853  0.5147  0.9088
21673SOL    HW267014   6.312   2.690   4.293 -0.0190 -0.0126 -1.1659
21674SOL     OW67015   4.029   8.235   8.521 -0.0683 -0.1129  0.0055
21674SOL    HW167016   4.090   8.224   8.594 -0.1514  0.4664  0.1695
21674SOL    HW267017   4.046   8.160   8.464  2.7570  1.3761 -1.3735
21675SOL     OW67018   7.660   6.242   8.534  0.1315  0.1158 -0.2299
21675SOL    HW167019   7.613   6.183   8.475 -1.1126 -0.4956  1.3133
21675SOL    HW267020   7.652   6.328   8.493  0.7474 -0.5287 -1.7866
21676SOL     OW67021   8.090   8.850   5.413 -0.1368  0.5709  0.1086
21676SOL    HW167022   8.149   8.924   5.393  2.0492 -0.5494  1.9375
21676SOL    HW267023   8.039   8.879   5.488 -1.4401  1.2387 -0.9822
21677SOL     OW67024   8.189   4.863   7.853  0.1608  0.2874 -0.4252
21677SOL    HW167025   8.127   4.807   7.806 -0.5533  1.6699 -1.1687
21677SOL    HW267026   8.254   4.888   7.787 -0.0028  1.0157 -0.3166
21678SOL     OW67027   0.358   7.865   7.355 -0.0796 -0.3282  0.6930
21678SOL    HW167028   0.340   7.790   7.297 -0.8556  0.7096 -0.4470
21678SOL    HW267029   0.360   7.941   7.296  2.6126  0.3630  1.5373
21679SOL     OW67030   5.227   4.224   2.349  0.2844 -0.2421  0.3949
21679SOL    HW167031   5.221   4.232   2.444  0.7228 -0.2272  0.4196
21679SOL    HW267032   5.320   4.226   2.329  0.1504  2.2668 -0.2667
21680SOL     OW67033   3.880   8.222   5.872  0.5687  0.4102  0.5058
21680SOL    HW167034   3.785   8.238   5.878  0.6167  1.2481 -0.5725
21680SOL    HW267035   3.893   8.192   5.782  1.2599 -0.2945  0.8313
21681SOL     OW67036   5.782   5.160   2.862 -0.0942  0.0473  0.5005
21681SOL    HW167037   5.702   5.145   2.812  0.5632 -0.4548 -0.4363
21681SOL    HW267038   5.853   5.156   2.797  0.6711  0.7451  1.2661
21682SOL     OW67039   7.586   2.859   1.976  0.5395  0.0973  0.1217
21682SOL    HW167040   7.609   2.809   2.054 -1.9294 -2.5530 -0.6630
21682SOL    HW267041   7.605   2.800   1.903 -3.3086 -0.2395 -0.8116
21683SOL     OW67042   6.851   0.753   6.994  0.1858 -0.2832 -0.1673
21683SOL    HW167043   6.942   0.758   7.021  0.2692 -1.4912 -0.1280
21683SOL    HW267044   6.818   0.673   7.036 -1.4053  1.0612  1.2610
21684SOL     OW67045   1.925   0.026   5.113  0.4389 -0.0655  1.0616
21684SOL    HW167046   1.953   0.030   5.204  0.4631  1.2823  1.0244
21684SOL    HW267047   1.966  -0.052   5.078  1.6742  0.2268  1.8096
21685SOL     OW67048   2.400   1.754   4.161 -0.7326  0.2805  0.0856
21685SOL    HW167049   2.463   1.774   4.093  0.0347  0.9252  0.9608
21685SOL    HW267050   2.315   1.756   4.117 -0.2835  1.1082 -0.7557
21686SOL     OW67051   4.662   6.181   8.766 -0.0405 -0.0184 -0.4382
21686SOL    HW167052   4.607   6.219   8.697  1.8550  1.4368 -1.2636
21686SOL    HW267053   4.744   6.160   8.721  0.4741 -1.1183  0.9569
21687SOL     OW67054   1.845   2.563   1.138  0.3171  0.2364 -0.5793
21687SOL    HW167055   1.852   2.471   1.115 -0.5485  0.4988 -1.9985
21687SOL    HW267056   1.860   2.610   1.056  1.5292  1.4094  0.2709
21688SOL     OW67057   2.733   6.390   1.772  0.6870 -0.2695 -0.0863
21688SOL    HW167058   2.803   6.437   1.727 -0.3683  0.9980 -0.4826
21688SOL    HW267059   2.654   6.410   1.721 -0.4054  0.4805  1.7816
21689SOL     OW67060   0.053   4.074   7.365  0.0699  0.0357  0.2660
21689SOL    HW167061   0.129   4.124   7.394  0.3925 -0.3670  0.1236
21689SOL    HW267062   0.089   4.003   7.312 -0.5193  0.8798 -1.3249
21690SOL     OW67063   3.420   3.102   8.413 -0.0882 -0.0757  0.5782
21690SOL    HW167064   3.467   3.097   8.330  2.4457  1.7038  1.7389
21690SOL    HW267065   3.437   3.018   8.455 -1.4078 -0.9965 -0.6668
21691SOL     OW67066   5.698   5.601   4.306 -0.0262 -0.2900 -0.2716
21691SOL    HW167067   5.761   5.607   4.377 -0.6510  1.2032  0.1940
21691SOL    HW267068   5.715   5.678   4.252  1.6322 -2.2539 -2.8335
21692SOL     OW67069   3.513   6.857   1.848  0.2261 -0.2805 -0.0319
21692SOL    HW167070   3.552   6.867   1.761 -0.3495 -1.3987 -0.4379
21692SOL    HW267071   3.579   6.808   1.898  0.1179 -0.5737 -0.1709
21693SOL     OW67072   6.226   1.979   7.363  0.1380  0.5878 -0.1271
21693SOL    HW167073   6.174   1.915   7.413 -1.4301 -0.5407 -2.9527
21693SOL    HW267074   6.304   1.931   7.337  0.3317  0.7531  0.1495
21694SOL     OW67075   4.720   7.858   6.211  0.0877  0.2063  0.2492
21694SOL    HW167076   4.687   7.858   6.301  1.1924  0.4924  0.6709
21694SOL    HW267077   4.772   7.938   6.204 -1.0445  0.8676 -1.0697
21695SOL     OW67078   1.267   2.977   5.501  0.3392 -0.4160  0.0541
21695SOL    HW167079   1.186   2.927   5.495  0.9421 -1.2819 -1.9066
21695SOL    HW267080   1.326   2.922   5.553  0.1880 -0.5408  0.0922
21696SOL     OW67081   8.059   4.966   5.403  0.3560 -0.2707 -0.1520
21696SOL    HW167082   7.997   4.996   5.469  0.6689  0.5711 -0.2402
21696SOL    HW267083   8.137   4.943   5.453 -0.4423 -2.6600  0.1361
21697SOL     OW67084   4.766   2.464   3.620 -0.0848  0.1186 -0.0763
21697SOL    HW167085   4.786   2.558   3.628  1.8958 -0.3258  1.0470
21697SOL    HW267086   4.722   2.442   3.702  3.1299 -0.6493  1.6315
21698SOL     OW67087   6.685   3.949   8.654 -0.4841 -0.3517  0.2393
21698SOL    HW167088   6.778   3.925   8.658 -0.3491 -0.0411 -0.7435
21698SOL    HW267089   6.654   3.909   8.573 -1.0215  0.1984  0.1708
21699SOL     OW67090   4.185   6.769   8.574  0.6669  0.6915 -0.0017
21699SOL    HW167091   4.238   6.807   8.644  1.0077  2.9096 -1.3779
21699SOL    HW267092   4.249   6.741   8.509  0.5744 -3.8375  1.5081
21700SOL     OW67093   7.083   8.224   7.964 -0.0794 -0.2604  0.2070
21700SOL    HW167094   7.173   8.256   7.975 -0.2410 -0.3966  2.1641
21700SOL    HW267095   7.029   8.289   8.009 -1.0448  0.1130 -1.4191
21701SOL     OW67096   8.586   2.936   6.417 -0.4180  0.4368  0.5839
21701SOL    HW167097   8.543   3.015   6.450  0.1234  1.6503 -1.4135
21701SOL    HW267098   8.679   2.960   6.415  0.0206 -1.0222  1.8662
21702SOL     OW67099   5.885   5.481   0.841 -0.2902  0.2515  0.0337
21702SOL    HW167100   5.933   5.505   0.920 -0.3483  1.4785 -0.2738
21702SOL    HW267101   5.794   5.498   0.862 -0.2273  1.4585 -0.5654
21703SOL     OW67102   1.683   0.716   4.370 -0.1742  0.4439 -0.2846
21703SOL    HW167103   1.723   0.770   4.438 -0.2550 -1.4440  1.3760
21703SOL    HW267104   1.594   0.701   4.401 -0.1092 -0.7286 -0.6170
21704SOL     OW67105   6.687   4.674   3.221  0.0143  0.1942  0.1064
21704SOL    HW167106   6.650   4.757   3.253  3.0235  1.7892 -0.1882
21704SOL    HW267107   6.679   4.680   3.126 -0.4901 -0.2733  0.1116
21705SOL     OW67108   1.070   2.561   6.161  0.3640 -0.2315 -0.2962
21705SOL    HW167109   0.980   2.592   6.162  0.2290 -0.6251 -0.0994
21705SOL    HW267110   1.120   2.633   6.122 -0.3127 -0.7913 -2.3102
21706SOL     OW67111   4.378   5.261   3.187  0.5627  0.4682 -0.0568
21706SOL    HW167112   4.416   5.243   3.273 -0.4250 -3.0069 -0.1750
21706SOL    HW267113   4.295   5.303   3.206  0.7074  0.4367  0.6694
21707SOL     OW67114   2.466   4.226   8.573 -0.6231  0.1888 -0.3258
21707SOL    HW167115   2.432   4.144   8.536 -1.5164  0.4888 -0.2036
21707SOL    HW267116   2.391   4.287   8.568 -0.4983  0.4874  1.1582
21708SOL     OW67117   6.346   2.631   0.821 -0.3615  0.0835  0.3450
21708SOL    HW167118   6.254   2.625   0.845 -0.7894  0.8757 -1.0307
21708SOL    HW267119   6.380   2.705   0.871 -1.3877  2.0962 -1.7411
21709SOL     OW67120   2.708   7.262   0.791  0.2168  0.4135 -0.1335
21709SOL    HW167121   2.634   7.322   0.794 -0.5578 -0.3946 -1.8960
21709SOL    HW267122   2.779   7.313   0.752 -0.9053 -0.1657 -3.2134
21710SOL     OW67123   1.542   7.664   3.129  0.0201 -0.5393  0.2023
21710SOL    HW167124   1.472   7.679   3.066  0.4541  4.7942  0.5681
21710SOL    HW267125   1.500   7.670   3.215  0.4248 -0.9009  0.4314
21711SOL     OW67126   5.222   1.075   1.933 -0.1048 -0.0069 -0.0489
21711SOL    HW167127   5.147   1.033   1.974  1.1713 -1.5368  0.8059
21711SOL    HW267128   5.287   1.006   1.924  1.5529  1.4527  0.0806
21712SOL     OW67129   4.533   5.794   0.184 -0.4056  0.0030  0.0012
21712SOL    HW167130   4.542   5.855   0.111  0.0343 -0.6415 -0.4924
21712SOL    HW267131   4.443   5.805   0.214 -0.5141  0.4458 -0.4787
21713SOL     OW67132   7.453   5.553   0.721 -0.1530  0.0508 -0.8125
21713SOL    HW167133   7.357   5.550   0.716 -0.2083 -0.3204  0.2371
21713SOL    HW267134   7.478   5.462   0.740  0.4858 -0.0745 -2.1813
21714SOL     OW67135   8.566   4.573   7.160  0.3018 -0.1475  0.3321
21714SOL    HW167136   8.538   4.515   7.089 -0.1256  0.3046  0.1268
21714SOL    HW267137   8.662   4.570   7.157  0.2855 -0.7393  0.2456
21715SOL     OW67138   2.976   1.761   2.713  0.7167 -0.5123 -0.1229
21715SOL    HW167139   3.032   1.803   2.648  1.1239  0.5244  0.8631
21715SOL    HW267140   2.947   1.833   2.770 -0.8047 -1.1761 -0.0102
21716SOL     OW67141   0.145   4.306   1.717  0.3839  0.2643  0.1676
21716SOL    HW167142   0.081   4.243   1.685 -0.5193  0.2169  1.9631
21716SOL    HW267143   0.211   4.253   1.761  1.0979  0.3968 -0.7142
21717SOL     OW67144   2.487   7.420   5.970 -0.0693  0.4292  0.3326
21717SOL    HW167145   2.422   7.355   5.996 -0.7468  1.8445  2.4479
21717SOL    HW267146   2.561   7.369   5.939 -1.9206 -1.2580 -1.6227
21718SOL     OW67147   6.962   1.370   4.432  0.2595 -0.6122  0.1241
21718SOL    HW167148   6.968   1.461   4.404  2.0354 -0.4363  0.9551
21718SOL    HW267149   7.039   1.357   4.488 -1.3712 -1.8376  2.2605
21719SOL     OW67150   6.307   6.363   3.901 -0.3244  0.4284  0.1720
21719SOL    HW167151   6.362   6.441   3.908  0.5279 -0.1740  0.3604
21719SOL    HW267152   6.260   6.374   3.819  1.1083  0.3200 -0.6891
21720SOL     OW67153   2.225   4.126   4.043 -0.5627  0.0323 -0.1127
21720SOL    HW167154   2.292   4.124   4.111 -0.1070 -2.0082 -0.5410
21720SOL    HW267155   2.142   4.121   4.090 -0.2656 -1.0137  0.3337
21721SOL     OW67156   5.010   3.505   5.714 -0.4842  0.4488  0.1253
21721SOL    HW167157   4.963   3.582   5.747 -1.7753 -1.0736  2.0335
21721SOL    HW267158   4.942   3.442   5.692  0.5148  0.0828 -2.2059
21722SOL     OW67159   5.912   5.872   4.976  0.8959  0.1841 -0.0546
21722SOL    HW167160   5.939   5.952   4.931 -0.0823  0.5879  0.0407
21722SOL    HW267161   5.823   5.856   4.945  0.3957  0.1735  1.2904
21723SOL     OW67162   8.487   4.670   5.722 -0.6080 -0.2325 -0.0675
21723SOL    HW167163   8.563   4.688   5.777 -1.8894  3.3760  0.7877
21723SOL    HW267164   8.412   4.674   5.781 -1.7777  0.5272 -1.5207
21724SOL     OW67165   8.283   7.541   7.107 -0.1300 -0.7647  0.0470
21724SOL    HW167166   8.356   7.493   7.069  0.2424 -0.1740  0.0139
21724SOL    HW267167   8.205   7.503   7.064  0.2102 -0.7940 -0.5557
21725SOL     OW67168   7.407   5.261   5.213  0.5767  0.3266  0.6451
21725SOL    HW167169   7.438   5.176   5.245  1.0061  0.2787  0.1177
21725SOL    HW267170   7.478   5.322   5.231  1.0197  0.2049 -0.6128
21726SOL     OW67171   0.835   6.671   6.621 -0.6996  0.2917 -0.1274
21726SOL    HW167172   0.770   6.619   6.573  0.8755 -2.1149  0.1892
21726SOL    HW267173   0.807   6.666   6.712  0.2933 -1.4555  0.1256
21727SOL     OW67174   2.169   2.000   4.064 -0.1244  0.6661  0.4037
21727SOL    HW167175   2.200   1.911   4.046 -0.7842  0.4418  0.3428
21727SOL    HW267176   2.137   1.996   4.154 -0.1678  0.8407  0.3948
21728SOL     OW67177   5.948   2.425   7.920 -0.2487 -0.9666 -0.0805
21728SOL    HW167178   5.871   2.405   7.974  0.4514 -0.8617  0.9911
21728SOL    HW267179   5.927   2.509   7.879 -0.2731 -0.3944  1.0687
21729SOL     OW67180   5.934   0.141   4.602  0.4606 -0.6312 -0.1173
21729SOL    HW167181   5.973   0.134   4.689  0.2689 -0.2825 -0.0019
21729SOL    HW267182   5.841   0.155   4.618  0.6645  1.2476 -0.3209
21730SOL     OW67183   3.477   8.035   6.282  0.1426 -0.0774  0.0694
21730SOL    HW167184   3.430   8.031   6.199 -1.6491  0.2047  1.0172
21730SOL    HW267185   3.442   8.113   6.326  0.6914 -0.4901  1.2819
21731SOL     OW67186   6.012   5.738   2.391 -0.6095  0.3409 -0.2679
21731SOL    HW167187   6.010   5.677   2.318  1.6084  0.2298 -0.2973
21731SOL    HW267188   6.029   5.823   2.351 -0.3313  0.4292  0.0287
21732SOL     OW67189   0.645   8.652   0.322 -0.4886  0.1280  0.1531
21732SOL    HW167190   0.660   8.730   0.376 -0.7955  0.0305  0.3785
21732SOL    HW267191   0.606   8.589   0.381  0.5088 -0.4930  0.1766
21733SOL     OW67192   5.853   1.606   4.692 -0.2082 -0.7696 -0.2104
21733SOL    HW167193   5.897   1.689   4.674 -1.0845 -0.5151 -1.2733
21733SOL    HW267194   5.769   1.630   4.731 -0.3728 -1.1660 -0.3165
21734SOL     OW67195   7.705   5.064   4.724  0.2191 -0.0519  0.1406
21734SOL    HW167196   7.776   5.004   4.746 -0.8997 -1.9014 -1.0387
21734SOL    HW267197   7.738   5.115   4.650  1.4435  1.3860  1.6026
21735SOL     OW67198   5.790   8.154   4.895 -0.1240  0.2590  0.0677
21735SOL    HW167199   5.826   8.086   4.838 -0.0281  1.1437 -0.9730
21735SOL    HW267200   5.695   8.144   4.887 -0.1422  1.1330 -1.2622
21736SOL     OW67201   8.270   1.646   6.184 -0.2625  0.1727 -0.2702
21736SOL    HW167202   8.336   1.645   6.253  1.0952 -0.6573 -1.5154
21736SOL    HW267203   8.204   1.708   6.215  0.3508 -0.0702  1.6879
21737SOL     OW67204   0.626   3.326   6.306  0.0911  0.1359 -0.4358
21737SOL    HW167205   0.546   3.346   6.355  0.3540 -0.8215  0.4212
21737SOL    HW267206   0.686   3.396   6.330  0.1599 -0.2328  0.4951
21738SOL     OW67207   6.445   0.935   6.800 -0.1316  0.5988  0.0078
21738SOL    HW167208   6.449   0.853   6.850 -2.7562  1.2934  1.6031
21738SOL    HW267209   6.532   0.973   6.808  1.0592 -1.8326 -0.5070
21739SOL     OW67210   4.891   5.848   6.963 -0.0751  0.2111 -0.2037
21739SOL    HW167211   4.913   5.892   7.044 -0.6044 -1.0500  0.6633
21739SOL    HW267212   4.954   5.776   6.956  0.3985  0.7023 -1.2720
21740SOL     OW67213   3.076   1.139   6.970 -0.3637  0.7974 -0.2338
21740SOL    HW167214   3.104   1.098   6.888  0.2791  1.9100 -0.5895
21740SOL    HW267215   3.118   1.087   7.038  0.5228  0.9081 -0.6784
21741SOL     OW67216   0.733   6.184   1.785  0.7946 -0.6962 -0.1757
21741SOL    HW167217   0.663   6.196   1.850 -0.1200 -1.4411 -0.9945
21741SOL    HW267218   0.705   6.235   1.709  0.9377 -1.3399 -0.6649
21742SOL     OW67219   6.267   4.545   1.072  0.6327 -0.0596  0.4869
21742SOL    HW167220   6.279   4.484   1.144  1.6662 -1.3813 -0.7321
21742SOL    HW267221   6.199   4.605   1.102 -0.4122 -1.7855  1.7608
21743SOL     OW67222   4.366   5.442   1.242 -0.0722 -0.4352 -0.2624
21743SOL    HW167223   4.296   5.444   1.306  0.7318 -0.0702  0.6335
21743SOL    HW267224   4.443   5.472   1.290  1.1088 -2.5761 -0.7277
21744SOL     OW67225   4.691   7.572   6.191 -0.2865 -0.6266  0.7728
21744SOL    HW167226   4.770   7.551   6.141 -1.2223 -0.8290 -0.7027
21744SOL    HW267227   4.702   7.663   6.216 -0.7910  0.2431 -1.8852
21745SOL     OW67228   2.170   5.161   4.240  0.5393  0.0813 -0.0704
21745SOL    HW167229   2.253   5.164   4.288  0.8216  0.4308 -0.5729
21745SOL    HW267230   2.107   5.125   4.303  0.9872  0.1764  0.4371
21746SOL     OW67231   7.245   7.457   7.260 -0.5046  0.1900  1.0290
21746SOL    HW167232   7.278   7.449   7.349 -0.0270 -1.2970  0.7469
21746SOL    HW267233   7.274   7.377   7.216 -1.1005  0.6924 -0.3444
21747SOL     OW67234   7.360   2.181   3.615  0.1919  0.2272 -0.0423
21747SOL    HW167235   7.341   2.186   3.521 -1.3705  1.7707  0.2915
21747SOL    HW267236   7.391   2.269   3.637  1.6623 -0.4503  0.7034
21748SOL     OW67237   0.868   7.284   2.399 -0.5337 -0.2837  0.0451
21748SOL    HW167238   0.881   7.202   2.445  0.3855 -1.0522 -1.4822
21748SOL    HW267239   0.790   7.323   2.439 -0.4157 -1.4103  1.4444
21749SOL     OW67240   2.940   7.170   4.055 -0.2874  0.1108  0.0632
21749SOL    HW167241   2.890   7.107   4.106 -1.0455  0.5031 -0.1759
21749SOL    HW267242   2.904   7.255   4.080 -0.7250  0.3106 -1.1622
21750SOL     OW67243   2.118   0.882   1.520  0.2127 -0.4367  0.0836
21750SOL    HW167244   2.065   0.946   1.568 -0.4877 -0.2346 -0.9338
21750SOL    HW267245   2.176   0.845   1.586 -0.5810 -0.0103  1.0445
21751SOL     OW67246   2.111   3.663   5.938  0.2795  0.1525 -0.3967
21751SOL    HW167247   2.188   3.719   5.931  1.2101 -0.8310  1.3053
21751SOL    HW267248   2.126   3.593   5.875 -0.2772  1.0547 -1.5903
21752SOL     OW67249   0.287   4.059   7.697 -0.2609  0.8300 -0.6179
21752SOL    HW167250   0.273   4.006   7.775 -1.0653 -0.1593 -1.4022
21752SOL    HW267251   0.337   4.135   7.728  1.2857 -0.5533  0.4800
21753SOL     OW67252   2.391   5.409   3.402  0.4559  0.4859  0.1421
21753SOL    HW167253   2.445   5.352   3.348 -1.4562 -0.6972 -0.6027
21753SOL    HW267254   2.438   5.414   3.486  1.3731 -1.0307 -0.2528
21754SOL     OW67255   0.074   2.559   0.523 -0.2373  0.1267  0.4772
21754SOL    HW167256   0.134   2.600   0.585 -1.9047  1.3470  1.3729
21754SOL    HW267257   0.110   2.580   0.437  0.9818  0.2258  0.9934
21755SOL     OW67258   4.484   6.515   5.943 -0.6537  0.0010 -0.1275
21755SOL    HW167259   4.534   6.594   5.922 -0.6279 -0.6000 -2.6369
21755SOL    HW267260   4.417   6.510   5.875 -0.4522 -2.2802 -0.2351
21756SOL     OW67261   5.091   0.437   0.191 -0.3737  0.2797 -0.1384
21756SOL    HW167262   5.101   0.403   0.102 -0.2356  0.0288 -0.0264
21756SOL    HW267263   5.155   0.509   0.196 -0.2798  0.2009 -0.1945
21757SOL     OW67264   5.988   2.868   4.690 -0.3460 -0.3147  0.6609
21757SOL    HW167265   5.897   2.890   4.670  0.2775  1.9401 -0.0461
21757SOL    HW267266   6.037   2.893   4.611  1.2287  1.4451  2.0658
21758SOL     OW67267   1.836   0.851   4.545  0.2886  0.0816  0.4238
21758SOL    HW167268   1.857   0.764   4.580 -0.3959  0.8686  3.0164
21758SOL    HW267269   1.917   0.901   4.557  0.8780 -0.2926 -1.6252
21759SOL     OW67270   2.522   1.783   3.357 -0.0738  0.1700  0.0806
21759SOL    HW167271   2.487   1.816   3.440  1.3482 -0.2969  0.9056
21759SOL    HW267272   2.445   1.762   3.305 -0.9961  0.8645  1.1265
21760SOL     OW67273   3.134   4.296   7.491  0.1762  0.2856 -0.3327
21760SOL    HW167274   3.215   4.280   7.442  0.2070 -0.3121 -0.1007
21760SOL    HW267275   3.113   4.211   7.531  0.5219  0.9122  1.2401
21761SOL     OW67276   0.602   6.122   4.846  0.6970 -0.2547  0.2090
21761SOL    HW167277   0.522   6.165   4.816  0.8123  0.4636  0.9126
21761SOL    HW267278   0.591   6.112   4.940  0.0497 -3.1216 -0.0704
21762SOL     OW67279   2.739   0.246   8.088 -0.4556  0.2615  0.4801
21762SOL    HW167280   2.691   0.318   8.045 -1.0882  0.0392  0.8023
21762SOL    HW267281   2.734   0.267   8.181 -0.3871 -0.0501  0.5532
21763SOL     OW67282   2.659   7.220   6.698  0.6767  0.1395 -0.4655
21763SOL    HW167283   2.567   7.246   6.702  0.1074 -0.9783 -3.5232
21763SOL    HW267284   2.707   7.296   6.730 -1.1842  2.3537 -2.5376
21764SOL     OW67285   2.982   5.911   0.855 -0.3529 -0.2730  0.8457
21764SOL    HW167286   3.027   5.985   0.894 -0.7797 -0.3509  1.5052
21764SOL    HW267287   2.986   5.842   0.921 -1.1368 -0.3893  0.7886
21765SOL     OW67288   2.550   1.403   4.120 -0.3856  0.3544  0.4261
21765SOL    HW167289   2.499   1.322   4.120 -1.2497  0.8796  1.4415
21765SOL    HW267290   2.507   1.459   4.056 -0.6131  0.5042  0.7075
21766SOL     OW67291   7.911   3.775   1.656 -0.0640 -0.1831  0.6303
21766SOL    HW167292   7.929   3.762   1.749 -2.5467 -0.4641  1.1448
21766SOL    HW267293   7.818   3.753   1.646 -0.1775  1.0196 -1.6988
21767SOL     OW67294   7.873   0.776   1.875 -0.3730  0.6392 -0.2120
21767SOL    HW167295   7.872   0.769   1.779 -3.2755  3.4694 -0.5785
21767SOL    HW267296   7.965   0.790   1.897  0.1492  2.3635 -2.9212
21768SOL     OW67297   7.825   5.818   3.155 -0.9117  0.5003 -0.0913
21768SOL    HW167298   7.865   5.779   3.232 -2.1482  0.3949  0.5278
21768SOL    HW267299   7.836   5.753   3.086 -2.2349 -0.6376  0.7231
21769SOL     OW67300   7.855   5.319   7.715  0.2778  0.2430  0.3453
21769SOL    HW167301   7.831   5.399   7.670  2.9506 -0.0606 -1.9491
21769SOL    HW267302   7.937   5.340   7.760  0.6387 -0.9468  0.3060
21770SOL     OW67303   5.061   6.597   8.019 -0.7028  0.4953 -0.6140
21770SOL    HW167304   5.145   6.552   8.012 -0.2107  0.9352  1.5521
21770SOL    HW267305   4.996   6.527   8.016  0.0065 -0.4051  1.8135
21771SOL     OW67306   7.834   3.397   6.956  0.6117 -0.6452 -0.1448
21771SOL    HW167307   7.901   3.463   6.942  0.0706 -0.0035  0.2257
21771SOL    HW267308   7.845   3.370   7.047  1.1462 -1.4402 -0.4290
21772SOL     OW67309   4.568   0.436   1.967  0.3945  0.4659 -0.0330
21772SOL    HW167310   4.494   0.438   2.028  0.5283  0.3649  0.1315
21772SOL    HW267311   4.565   0.521   1.924  1.1234  1.0893  1.0890
21773SOL     OW67312   1.735   3.815   6.999 -0.6889 -0.0111  0.3589
21773SOL    HW167313   1.646   3.844   6.980 -1.6699 -2.3218  1.0454
21773SOL    HW267314   1.726   3.756   7.074  1.4008 -0.4975  0.3026
21774SOL     OW67315   8.420   1.392   7.027  0.2706  0.0684  0.5914
21774SOL    HW167316   8.496   1.366   6.976 -1.0961 -1.7673 -0.6153
21774SOL    HW267317   8.447   1.475   7.069  1.8377  1.1132 -2.2091
21775SOL     OW67318   2.743   5.016   6.831 -0.3881  0.0425  0.0124
21775SOL    HW167319   2.782   4.937   6.867 -0.4756 -0.0194 -0.0275
21775SOL    HW267320   2.661   4.986   6.790  0.8582 -0.2925 -2.4058
21776SOL     OW67321   7.872   2.603   0.190  0.2063 -0.3468 -0.0896
21776SOL    HW167322   7.918   2.609   0.106  1.1559 -1.2946  0.3361
21776SOL    HW267323   7.936   2.635   0.254 -0.3995  0.0724  0.3114
21777SOL     OW67324   0.268   8.588   5.271 -0.3178 -0.1667  0.0363
21777SOL    HW167325   0.258   8.506   5.319  3.2116  0.0688  1.4904
21777SOL    HW267326   0.351   8.578   5.225 -0.6902  1.9497 -1.2062
21778SOL     OW67327   6.727   3.819   1.274  0.5188  0.1271  0.2218
21778SOL    HW167328   6.710   3.764   1.197  0.2853  2.2733 -1.3786
21778SOL    HW267329   6.668   3.786   1.341  0.0746 -1.2691 -0.8128
21779SOL     OW67330   4.520   1.278   1.907  0.2377  0.1762  0.2313
21779SOL    HW167331   4.604   1.234   1.892  1.3556  2.6681 -1.6873
21779SOL    HW267332   4.474   1.272   1.823 -1.2894 -0.6635  1.0945
21780SOL     OW67333   6.472   4.684   8.851  0.0339 -0.3268  0.1799
21780SOL    HW167334   6.514   4.670   8.766  1.1351 -1.5603  0.8921
21780SOL    HW267335   6.483   4.600   8.897 -0.1168  0.4626  1.7200
21781SOL     OW67336   2.421   1.157   4.797  0.3836 -0.1592  0.1792
21781SOL    HW167337   2.402   1.070   4.762  0.1533  0.3566 -1.0254
21781SOL    HW267338   2.485   1.194   4.736  0.4597  0.5223  0.6629
21782SOL     OW67339   2.292   0.634   0.899 -0.5105 -0.0827 -0.5973
21782SOL    HW167340   2.364   0.681   0.940  0.2742 -0.6023 -1.3166
21782SOL    HW267341   2.288   0.551   0.946 -1.7351  0.5803  0.5141
21783SOL     OW67342   8.010   7.884   7.123  0.0707 -0.7464  0.0670
21783SOL    HW167343   8.037   7.905   7.212 -0.9039 -1.9239  0.6565
21783SOL    HW267344   8.084   7.835   7.087  0.3688 -0.4724  0.3003
21784SOL     OW67345   6.425   0.151   8.055  0.0017  0.3595  0.0737
21784SOL    HW167346   6.516   0.177   8.052 -0.3787  1.6577 -0.7978
21784SOL    HW267347   6.385   0.209   8.120 -0.4195  0.5095 -0.3178
21785SOL     OW67348   5.582   2.512   5.607 -0.1662 -0.1279  0.1321
21785SOL    HW167349   5.492   2.495   5.634  0.3266 -0.9776  1.3298
21785SOL    HW267350   5.582   2.604   5.582 -0.9372  0.4237  2.0055
21786SOL     OW67351   8.823   7.766   1.065  0.3330 -0.2511 -0.2258
21786SOL    HW167352   8.797   7.713   0.990 -1.6350 -0.5153  0.5850
21786SOL    HW267353   8.829   7.855   1.032 -4.1782  0.3158 -0.0893
21787SOL     OW67354   6.142   3.607   8.014 -0.0055 -0.2305  0.1091
21787SOL    HW167355   6.228   3.646   8.024 -0.8971  1.9928 -0.3017
21787SOL    HW267356   6.130   3.597   7.920 -1.0381  1.6696 -0.0180
21788SOL     OW67357   2.028   2.138   6.425 -0.5166  0.2486 -0.1778
21788SOL    HW167358   1.949   2.184   6.452 -0.1473 -0.1783  1.8109
21788SOL    HW267359   2.100   2.193   6.458 -0.0677 -1.6894  2.3513
21789SOL     OW67360   1.598   5.488   0.992  0.3193 -0.0383 -0.4024
21789SOL    HW167361   1.574   5.532   0.910  0.8295 -1.0831 -1.1303
21789SOL    HW267362   1.632   5.403   0.965  0.1611 -0.5506  0.9276
21790SOL     OW67363   7.479   7.410   1.601  0.1640  0.1051  0.3666
21790SOL    HW167364   7.427   7.436   1.677 -0.5512 -1.2776  0.3727
21790SOL    HW267365   7.446   7.465   1.530 -1.5802 -0.9496  0.2950
21791SOL     OW67366   5.745   0.707   1.210  0.0482 -0.2349 -0.0189
21791SOL    HW167367   5.727   0.626   1.161  1.5574  0.1528 -1.2824
21791SOL    HW267368   5.830   0.691   1.252  0.3805  0.7151 -0.3258
21792SOL     OW67369   1.739   8.235   5.974  0.6343 -0.1386 -0.2701
21792SOL    HW167370   1.775   8.234   5.886  0.7605  0.0024 -0.2214
21792SOL    HW267371   1.680   8.310   5.975  3.1295  1.9751  0.7274
21793SOL     OW67372   3.222   4.086   2.559  0.5568  0.3043 -0.4386
21793SOL    HW167373   3.217   3.991   2.543 -3.6270  0.0512  1.0982
21793SOL    HW267374   3.243   4.123   2.474  2.0375 -1.9508 -1.1534
21794SOL     OW67375   6.153   8.181   4.597  0.4227 -0.3918  0.0738
21794SOL    HW167376   6.097   8.249   4.559  0.3254 -0.6991 -0.3383
21794SOL    HW267377   6.237   8.224   4.611 -0.0259  0.1942  1.0860
21795SOL     OW67378   8.185   6.355   4.666  0.2196 -0.2702 -0.4029
21795SOL    HW167379   8.186   6.447   4.694  0.1681 -0.7185  1.1785
21795SOL    HW267380   8.275   6.325   4.679  0.1499 -0.5460 -0.5602
21796SOL     OW67381   2.129   3.554   0.659 -0.2479  0.0159 -0.0864
21796SOL    HW167382   2.175   3.472   0.675  0.6111  0.6559  0.8288
21796SOL    HW267383   2.169   3.617   0.719  2.1237  2.2402 -3.6292
21797SOL     OW67384   8.165   2.807   8.419  0.5388 -0.1000 -0.1274
21797SOL    HW167385   8.109   2.836   8.346 -0.1605 -0.1784  0.3682
21797SOL    HW267386   8.164   2.880   8.480  1.6764  0.2387 -0.4851
21798SOL     OW67387   0.919   2.236   8.297  0.5551  0.0675 -1.0190
21798SOL    HW167388   0.909   2.218   8.203 -1.0005 -0.7077 -0.7469
21798SOL    HW267389   0.859   2.309   8.314  0.2725 -0.2792 -0.4992
21799SOL     OW67390   7.103   3.920   5.424  0.0320 -0.2297 -0.1845
21799SOL    HW167391   7.037   3.913   5.356  1.2753  0.8970 -1.5916
21799SOL    HW267392   7.080   3.999   5.473 -0.5363 -0.7174  0.3434
21800SOL     OW67393   7.813   7.800   6.616  0.6342 -0.0859 -0.0027
21800SOL    HW167394   7.816   7.797   6.712 -0.5721  2.6886  0.2117
21800SOL    HW267395   7.802   7.708   6.589 -0.6309 -0.7737  2.5786
21801SOL     OW67396   7.704   5.816   6.032  1.2801 -0.4364 -0.2352
21801SOL    HW167397   7.614   5.785   6.027  1.3185 -0.7612  0.7560
21801SOL    HW267398   7.716   5.870   5.954 -0.1593  0.6012  0.2101
21802SOL     OW67399   8.585   3.408   5.892 -0.4232 -0.8828  0.4500
21802SOL    HW167400   8.580   3.338   5.826 -0.9023 -1.6262  1.2556
21802SOL    HW267401   8.495   3.438   5.903 -0.0767  0.7948 -0.8243
21803SOL     OW67402   2.989   8.506   2.591 -0.5568 -0.0635 -0.2997
21803SOL    HW167403   2.956   8.574   2.532  0.6660  0.7157 -0.1428
21803SOL    HW267404   2.928   8.433   2.581 -2.4529  1.3702  0.2036
21804SOL     OW67405   1.900   2.098   5.126 -0.5955 -0.3229 -0.0160
21804SOL    HW167406   1.842   2.140   5.062  0.3611 -2.3607 -2.3799
21804SOL    HW267407   1.908   2.008   5.096  2.6354 -0.5041  0.9958
21805SOL     OW67408   3.909   4.373   8.005  0.3765 -0.3353 -0.2219
21805SOL    HW167409   3.934   4.380   7.913  2.5037 -1.5316  0.1945
21805SOL    HW267410   3.867   4.287   8.012 -0.1432 -0.0771 -0.1463
21806SOL     OW67411   8.198   6.817   6.308 -0.1231  0.3810 -0.5636
21806SOL    HW167412   8.262   6.761   6.351 -0.9547 -0.9368 -0.9830
21806SOL    HW267413   8.115   6.794   6.349 -0.3506  2.2492  0.1589
21807SOL     OW67414   3.445   4.107   6.513 -0.4092  0.1603 -0.0434
21807SOL    HW167415   3.503   4.072   6.446 -1.9754 -1.1216 -0.8094
21807SOL    HW267416   3.444   4.202   6.498  0.1751  0.0080 -1.0703
21808SOL     OW67417   3.984   6.856   4.455  0.4083  0.0717  0.0007
21808SOL    HW167418   4.061   6.821   4.500 -1.8178 -2.6486  2.0827
21808SOL    HW267419   3.927   6.780   4.443 -2.4673  2.1118 -0.3440
21809SOL     OW67420   2.584   8.329   7.423  0.2820  0.1140  0.2179
21809SOL    HW167421   2.513   8.306   7.363  0.7640  0.7190 -0.5946
21809SOL    HW267422   2.658   8.277   7.393  0.4736  0.2727  0.4168
21810SOL     OW67423   3.115   1.237   2.676  0.5352 -0.0214  0.1675
21810SOL    HW167424   3.163   1.160   2.644  1.0618  0.5502 -0.4477
21810SOL    HW267425   3.023   1.210   2.675  0.6024 -0.2799 -1.1371
21811SOL     OW67426   8.811   5.329   2.499  0.1836  0.5528 -0.2375
21811SOL    HW167427   8.810   5.303   2.407  1.7640  0.8526 -0.3595
21811SOL    HW267428   8.720   5.319   2.527 -0.2349 -0.0204 -1.6891
21812SOL     OW67429   5.009   7.908   3.374 -0.3900 -0.1938 -0.3977
21812SOL    HW167430   5.022   7.894   3.280 -1.0699 -1.6478 -0.3033
21812SOL    HW267431   5.069   7.846   3.416  1.7557  2.1546  0.2072
21813SOL     OW67432   2.239   4.776   3.853  0.3043 -0.0374  0.0227
21813SOL    HW167433   2.310   4.832   3.821  1.4641 -0.4522  1.7468
21813SOL    HW267434   2.283   4.708   3.903 -1.2622 -0.9997  0.1642
21814SOL     OW67435   5.713   5.751   5.860 -0.9316  0.1609 -0.0728
21814SOL    HW167436   5.767   5.744   5.781  0.4749  1.3110  0.7512
21814SOL    HW267437   5.703   5.661   5.891 -0.0158 -0.1239 -0.5956
21815SOL     OW67438   7.164   4.269   2.598 -0.0297  0.5707 -0.4288
21815SOL    HW167439   7.197   4.231   2.516 -0.2180 -0.6061  0.0149
21815SOL    HW267440   7.096   4.208   2.626  0.6581  0.4577  1.0714
21816SOL     OW67441   3.743   1.788   2.236  0.1381 -0.3994 -0.0742
21816SOL    HW167442   3.654   1.793   2.203  0.8365  0.0551 -2.0140
21816SOL    HW267443   3.781   1.874   2.216  2.0915 -1.7287 -2.7635
21817SOL     OW67444   0.405   4.067   3.255  0.5956 -0.4852 -0.7948
21817SOL    HW167445   0.346   4.142   3.244  0.7995 -0.1963  0.0482
21817SOL    HW267446   0.492   4.103   3.238  0.6556 -0.6230 -0.7816
21818SOL     OW67447   2.085   2.560   2.382  0.0502  1.0382 -0.2239
21818SOL    HW167448   2.179   2.542   2.370 -0.3479  0.1649 -2.4576
21818SOL    HW267449   2.056   2.595   2.298 -1.8002  0.5352  0.1548
21819SOL     OW67450   5.630   6.228   6.903  0.6949 -0.1363 -0.2958
21819SOL    HW167451   5.706   6.245   6.848  0.2425 -1.9917 -1.6305
21819SOL    HW267452   5.605   6.138   6.881 -2.3042  0.6222 -0.4606
21820SOL     OW67453   0.353   2.906   3.789  0.8647 -0.3273  0.8931
21820SOL    HW167454   0.360   2.836   3.725 -0.9072  0.6455 -0.4674
21820SOL    HW267455   0.386   2.984   3.744  2.0567 -0.0899  2.1025
21821SOL     OW67456   6.605   6.201   7.406 -0.2675 -0.2424 -0.3250
21821SOL    HW167457   6.690   6.238   7.429 -0.5444 -0.0722  0.4617
21821SOL    HW267458   6.570   6.262   7.340 -0.6848  0.8977  0.8954
21822SOL     OW67459   7.064   6.198   5.123 -0.5021 -0.4221 -0.4936
21822SOL    HW167460   7.065   6.232   5.034  0.3901  0.3168 -0.2107
21822SOL    HW267461   6.998   6.251   5.168  1.3540  1.4950  0.1247
21823SOL     OW67462   2.574   0.508   1.658 -0.2256 -0.0008  0.0985
21823SOL    HW167463   2.647   0.481   1.603  1.7439 -0.3313  2.6990
21823SOL    HW267464   2.559   0.600   1.635 -0.9918 -0.6544 -2.4360
21824SOL     OW67465   5.902   6.145   7.179  1.2084  0.6753 -0.2005
21824SOL    HW167466   5.968   6.075   7.183  2.3390  1.7203 -0.0470
21824SOL    HW267467   5.875   6.146   7.087 -0.3720 -1.3048  0.1587
21825SOL     OW67468   4.206   3.956   0.089  0.3514  0.0227 -0.1686
21825SOL    HW167469   4.164   4.015   0.152  1.9226  0.2638  0.7343
21825SOL    HW267470   4.244   4.015   0.023  0.1455 -0.1211 -0.4169
21826SOL     OW67471   0.231   5.075   6.430 -0.4480  0.0422  0.2804
21826SOL    HW167472   0.213   5.154   6.379  0.2525 -0.2009 -0.3588
21826SOL    HW267473   0.221   5.103   6.521  1.1230  1.2456  0.1288
21827SOL     OW67474   7.154   7.070   2.309 -0.2967  0.5630  0.1188
21827SOL    HW167475   7.210   7.033   2.377  0.6966  1.7803 -0.0196
21827SOL    HW267476   7.107   6.994   2.274  2.4116 -0.8007 -0.8601
21828SOL     OW67477   6.647   7.944   4.731 -0.4424 -0.1756 -0.5187
21828SOL    HW167478   6.743   7.942   4.725 -0.4148  1.0376 -0.7794
21828SOL    HW267479   6.629   7.927   4.824  0.1130  1.1389 -0.1459
21829SOL     OW67480   6.037   4.356   1.740  0.1641  0.1085 -0.3611
21829SOL    HW167481   6.044   4.411   1.818 -0.2239 -0.3927  0.0369
21829SOL    HW267482   6.128   4.337   1.717  0.3086  1.0840 -0.6348
21830SOL     OW67483   0.570   6.992   4.243  0.5260 -0.2891  0.3454
21830SOL    HW167484   0.579   7.040   4.325  0.9025 -1.8258  1.2341
21830SOL    HW267485   0.661   6.976   4.215  0.4010  0.0848 -0.3076
21831SOL     OW67486   4.042   7.816   5.971 -0.2398  0.3433 -0.1346
21831SOL    HW167487   3.959   7.806   6.017  0.1400 -1.3811  0.2356
21831SOL    HW267488   4.027   7.773   5.886  1.1798 -2.9812  1.1465
21832SOL     OW67489   4.804   1.652   5.287 -0.1820 -0.4902  0.4482
21832SOL    HW167490   4.719   1.621   5.256  0.3785  0.9772 -2.9356
21832SOL    HW267491   4.856   1.573   5.299 -1.6987 -1.3523  1.7143
21833SOL     OW67492   6.971   3.775   3.616  0.2381  0.0786 -0.0941
21833SOL    HW167493   6.898   3.737   3.568 -1.2250  1.1039  1.2406
21833SOL    HW267494   6.989   3.713   3.686 -2.2002  1.6546  2.1311
21834SOL     OW67495   0.216   0.688   3.602 -0.0095 -0.3543 -0.3751
21834SOL    HW167496   0.177   0.629   3.666  0.0237  0.0342  0.0015
21834SOL    HW267497   0.302   0.708   3.636  1.0851 -2.2204 -1.8202
21835SOL     OW67498   0.041   6.044   8.118  0.4883 -0.2963 -0.1454
21835SOL    HW167499  -0.012   6.119   8.148  1.1070 -0.1336  0.5495
21835SOL    HW267500   0.022   5.974   8.181  0.8214 -0.3500 -0.1019
21836SOL     OW67501   7.944   5.175   7.483  0.0437 -0.7141  0.3545
21836SOL    HW167502   7.923   5.225   7.562  0.8726 -0.4734  0.4272
21836SOL    HW267503   7.905   5.089   7.498 -2.1097  0.1117 -0.1060
21837SOL     OW67504   4.091   3.514   2.484  0.0598  0.2559 -0.6366
21837SOL    HW167505   4.132   3.428   2.470  0.3841  0.4711 -1.0280
21837SOL    HW267506   4.012   3.495   2.534 -0.6985 -0.4495 -2.0439
21838SOL     OW67507   4.343   3.324   7.619  0.6590  0.1373  0.5791
21838SOL    HW167508   4.269   3.263   7.612  0.7458 -0.1206  1.6322
21838SOL    HW267509   4.413   3.283   7.568  0.3948 -0.1469  0.4444
21839SOL     OW67510   5.969   3.264   2.261  0.4977  0.1964 -0.5101
21839SOL    HW167511   5.923   3.251   2.344  0.9344 -0.6200 -0.3752
21839SOL    HW267512   5.998   3.355   2.263 -0.5443  0.5354 -0.3198
21840SOL     OW67513   0.049   7.592   6.612 -0.1995 -0.0232  0.0699
21840SOL    HW167514   0.140   7.604   6.637 -0.5310  3.4087  0.1318
21840SOL    HW267515   0.049   7.512   6.559  2.6402 -0.6246  0.8100
21841SOL     OW67516   0.468   2.168   4.099  0.3071  0.5726 -0.5132
21841SOL    HW167517   0.455   2.089   4.152 -0.4440 -0.5335 -2.2497
21841SOL    HW267518   0.549   2.152   4.051  0.4862  1.1482 -0.4142
21842SOL     OW67519   6.888   8.089   6.181  0.2884 -0.1534  0.0549
21842SOL    HW167520   6.871   8.183   6.172 -0.3964 -0.2346  0.3670
21842SOL    HW267521   6.868   8.070   6.273  3.0886 -0.0974  0.7617
21843SOL     OW67522   8.883   2.162   1.513  0.6806 -0.3017 -0.3628
21843SOL    HW167523   8.878   2.109   1.593  1.2785  0.5408  0.2480
21843SOL    HW267524   8.878   2.253   1.544  2.3935  0.0937 -1.1421
21844SOL     OW67525   2.273   4.332   7.484  0.1114 -0.1986  0.4514
21844SOL    HW167526   2.266   4.324   7.389 -1.8288 -1.0486  0.6167
21844SOL    HW267527   2.267   4.426   7.501 -0.3390 -0.1052 -0.2213
21845SOL     OW67528   5.252   8.696   2.490  0.7780 -0.1978  0.0284
21845SOL    HW167529   5.293   8.783   2.493  0.2947  0.0889 -1.4249
21845SOL    HW267530   5.193   8.699   2.416  0.8511 -1.8254 -0.1311
21846SOL     OW67531   2.570   1.188   3.852  0.3213 -0.0054  0.1386
21846SOL    HW167532   2.490   1.194   3.801  0.6232 -0.7267 -0.4348
21846SOL    HW267533   2.547   1.134   3.928  0.2104 -0.0308  0.0869
21847SOL     OW67534   7.995   6.850   0.427  0.4732  0.2233  0.1157
21847SOL    HW167535   8.091   6.856   0.436  0.4801 -1.1263  1.2843
21847SOL    HW267536   7.977   6.756   0.429 -0.6497  0.2470 -3.1668
21848SOL     OW67537   8.312   1.504   1.543 -0.6462 -0.6611  0.3382
21848SOL    HW167538   8.250   1.454   1.490 -0.7639  0.7133 -0.8849
21848SOL    HW267539   8.258   1.566   1.592 -0.2901  0.2118 -0.3571
21849SOL     OW67540   3.918   1.154   6.946 -0.0352  0.1793  0.6253
21849SOL    HW167541   3.854   1.138   7.014 -0.0037  0.7610  0.8006
21849SOL    HW267542   3.920   1.250   6.937  0.6884  0.1626  0.5169
21850SOL     OW67543   4.516   5.088   7.767 -0.1447 -0.1319 -0.0159
21850SOL    HW167544   4.562   5.157   7.718 -0.1739 -1.3476 -1.8622
21850SOL    HW267545   4.563   5.082   7.851 -0.1427  2.0899  0.1862
21851SOL     OW67546   7.613   6.145   7.585 -0.1621  0.4606 -0.8545
21851SOL    HW167547   7.582   6.054   7.584 -0.9979  0.6530  1.3726
21851SOL    HW267548   7.656   6.157   7.500  0.0716 -2.0433 -1.1577
21852SOL     OW67549   3.686   5.335   0.987  0.0494 -0.0340  0.3887
21852SOL    HW167550   3.624   5.320   1.058  1.1510  0.0803  1.3925
21852SOL    HW267551   3.650   5.285   0.913 -0.9903 -0.3286  1.0682
21853SOL     OW67552   6.176   3.138   4.091  0.1142  0.3113  0.2048
21853SOL    HW167553   6.218   3.216   4.055 -0.0974  0.7357  0.8887
21853SOL    HW267554   6.106   3.170   4.146  1.9266 -0.2018  3.0203
21854SOL     OW67555   8.622   2.427   1.250 -0.5457 -0.5495  0.0754
21854SOL    HW167556   8.648   2.453   1.338 -0.6371  2.1512 -0.6287
21854SOL    HW267557   8.679   2.352   1.230  0.8016 -0.0415  1.7210
21855SOL     OW67558   3.780   8.095   6.548 -0.3927  0.5997  0.1696
21855SOL    HW167559   3.822   8.174   6.516 -1.2655  0.9637 -0.1077
21855SOL    HW267560   3.847   8.051   6.601  0.3694  1.0817 -0.3877
21856SOL     OW67561   0.539   3.499   5.762 -0.4634 -0.2182  0.2660
21856SOL    HW167562   0.516   3.591   5.750  0.8771  0.3712  1.9005
21856SOL    HW267563   0.459   3.459   5.797 -0.5764  0.6916  1.0834
21857SOL     OW67564   7.039   8.761   4.795 -0.3247 -0.0385 -0.0278
21857SOL    HW167565   7.130   8.785   4.781 -0.9200  0.9969 -2.9523
21857SOL    HW267566   7.033   8.670   4.764 -0.5286  0.4308 -1.4811
21858SOL     OW67567   7.409   3.024   1.186  0.8183 -0.3095  0.3178
21858SOL    HW167568   7.386   2.964   1.257 -0.0848  1.5572  1.6938
21858SOL    HW267569   7.417   2.968   1.109 -2.9274 -1.9044  0.8500
21859SOL     OW67570   5.066   4.798   4.803  0.2983 -0.0215  0.5717
21859SOL    HW167571   5.062   4.716   4.851  1.6971 -0.4393  0.0023
21859SOL    HW267572   5.078   4.865   4.871  1.6958 -0.5508  0.8785
21860SOL     OW67573   3.369   1.012   0.193  0.3027  0.4633 -0.2170
21860SOL    HW167574   3.396   1.056   0.113  0.7349 -0.6664 -0.7043
21860SOL    HW267575   3.442   0.955   0.215  0.3572  1.0330  1.2090
21861SOL     OW67576   5.770   3.460   3.835  0.5181 -0.0973  0.4826
21861SOL    HW167577   5.836   3.403   3.873  1.5407  1.5797  1.3312
21861SOL    HW267578   5.689   3.410   3.840  1.5857 -1.9864 -0.0618
21862SOL     OW67579   4.850   0.551   7.746 -0.4937 -0.1392  0.0809
21862SOL    HW167580   4.836   0.609   7.821 -0.4808  0.4528 -0.3684
21862SOL    HW267581   4.773   0.564   7.691 -0.5736 -0.6839  0.0672
21863SOL     OW67582   7.744   1.242   5.359  0.1036 -0.3052  0.1135
21863SOL    HW167583   7.731   1.183   5.432 -0.6194  0.1984  0.4037
21863SOL    HW267584   7.823   1.210   5.316 -0.4855 -1.7117  0.0253
21864SOL     OW67585   3.663   2.921   6.114 -0.4761  0.2728  0.2720
21864SOL    HW167586   3.639   2.997   6.061  0.3176 -0.4561 -1.1976
21864SOL    HW267587   3.580   2.876   6.131 -0.7251  0.3654 -0.6353
21865SOL     OW67588   5.824   0.992   6.237 -0.4649  0.3978  0.0774
21865SOL    HW167589   5.769   0.976   6.314 -1.1905 -1.9512 -0.8533
21865SOL    HW267590   5.862   0.907   6.216  1.3044  1.3956 -1.0162
21866SOL     OW67591   7.291   3.500   7.060 -0.3575 -0.0110  0.0045
21866SOL    HW167592   7.321   3.432   7.120 -1.1561  0.1421  0.5961
21866SOL    HW267593   7.314   3.467   6.973  1.3805  0.0452  0.4046
21867SOL     OW67594   1.417   1.462   0.950  0.1250 -0.6115  0.2747
21867SOL    HW167595   1.384   1.515   0.878  0.0329 -1.3386 -0.2279
21867SOL    HW267596   1.339   1.440   1.002  0.1050 -0.6092  0.2452
21868SOL     OW67597   3.036   0.450   2.014  0.6088  0.1075 -0.6121
21868SOL    HW167598   2.995   0.424   1.931 -0.5181  0.0979 -0.0784
21868SOL    HW267599   3.065   0.367   2.053  2.3357  0.2211 -1.5677
21869SOL     OW67600   7.949   3.600   7.672 -0.1238  0.2137 -0.3736
21869SOL    HW167601   7.872   3.638   7.715 -0.0410  0.4223 -0.4072
21869SOL    HW267602   7.951   3.510   7.703  0.8055  0.7492  1.2900
21870SOL     OW67603   7.341   6.445   5.685 -0.2209 -0.1473 -0.2220
21870SOL    HW167604   7.324   6.524   5.736 -2.3182 -0.3499 -0.5258
21870SOL    HW267605   7.377   6.478   5.602 -2.7256  0.7128 -1.0651
21871SOL     OW67606   6.171   7.548   6.480 -0.1773 -0.2791  0.1779
21871SOL    HW167607   6.156   7.473   6.421 -2.2272  0.2483 -0.0683
21871SOL    HW267608   6.098   7.544   6.541 -0.9520  2.1052 -0.4967
21872SOL     OW67609   2.834   7.941   8.877  0.3004  0.1492  0.4149
21872SOL    HW167610   2.848   7.979   8.790  1.7519 -1.2613 -0.0062
21872SOL    HW267611   2.862   7.850   8.868 -1.3921 -0.5687  1.8539
21873SOL     OW67612   4.809   0.993   5.056  0.0932 -0.0449  0.1083
21873SOL    HW167613   4.802   0.922   4.992  0.2691 -0.0891  0.1363
21873SOL    HW267614   4.785   1.072   5.007  0.6341 -0.0191 -0.1285
21874SOL     OW67615   6.748   1.705   2.149 -0.2839  0.4932  0.2708
21874SOL    HW167616   6.656   1.705   2.175  0.0325  0.3481  1.4540
21874SOL    HW267617   6.764   1.617   2.116 -0.8078  0.8133 -0.8904
21875SOL     OW67618   7.654   7.799   0.087  0.8036  0.1018  0.4147
21875SOL    HW167619   7.612   7.716   0.064  1.9689 -0.1428 -0.9428
21875SOL    HW267620   7.669   7.843   0.004 -0.6983  2.1767  1.1707
21876SOL     OW67621   3.320   3.467   6.073 -0.6207 -0.4043 -0.0897
21876SOL    HW167622   3.413   3.448   6.084 -0.8445 -3.2295 -2.1852
21876SOL    HW267623   3.318   3.553   6.030  0.9525 -0.0442  0.4838
21877SOL     OW67624   7.675   4.937   8.700  0.4023 -0.6025  0.0883
21877SOL    HW167625   7.598   4.986   8.669  0.7770  0.9849  1.5185
21877SOL    HW267626   7.749   4.981   8.659  0.6425 -1.3708 -0.3222
21878SOL     OW67627   0.010   4.042   7.963 -0.2741 -0.5369  0.4276
21878SOL    HW167628   0.092   4.072   8.000  1.0122 -3.1225 -0.0805
21878SOL    HW267629  -0.035   3.998   8.035 -0.1185 -1.1535  0.1541
21879SOL     OW67630   2.356   3.642   8.415 -0.5825 -0.9252  0.0101
21879SOL    HW167631   2.291   3.702   8.378  0.0305  0.5189  1.1502
21879SOL    HW267632   2.318   3.555   8.402 -3.1165 -0.1313  1.2284
21880SOL     OW67633   2.025   7.261   1.155 -0.0448  0.1095  0.0781
21880SOL    HW167634   1.974   7.195   1.202 -0.8129  0.8016  0.2365
21880SOL    HW267635   1.973   7.281   1.077 -0.5794  1.5730  0.7551
21881SOL     OW67636   4.284   3.097   1.467  0.0873  0.0609  0.2333
21881SOL    HW167637   4.269   3.039   1.393  1.9878  0.4910 -0.5429
21881SOL    HW267638   4.314   3.179   1.428  0.9740  0.3465  1.4588
21882SOL     OW67639   3.921   8.414   6.951 -0.2335 -0.7203  0.1552
21882SOL    HW167640   3.933   8.509   6.943 -1.8126 -0.5582 -0.5951
21882SOL    HW267641   3.827   8.402   6.956 -0.0351 -2.2308  0.9200
21883SOL     OW67642   2.842   5.016   3.177 -0.0402 -1.3445 -0.1771
21883SOL    HW167643   2.832   4.925   3.149 -1.5664 -1.5193  0.8181
21883SOL    HW267644   2.780   5.065   3.123  0.1560 -1.0194 -0.1090
21884SOL     OW67645   0.474   8.697   7.744 -0.7290 -0.2491  0.7279
21884SOL    HW167646   0.554   8.674   7.698 -0.7746 -0.3537  0.7011
21884SOL    HW267647   0.430   8.614   7.760 -1.8756 -0.0548 -1.1196
21885SOL     OW67648   0.965   1.648   3.266 -0.1577 -0.5782  0.3841
21885SOL    HW167649   0.895   1.713   3.279  0.1249 -0.1081 -0.3554
21885SOL    HW267650   1.043   1.689   3.303  0.9676  1.3596 -3.5058
21886SOL     OW67651   5.027   6.740   2.975 -0.4977  0.6021 -0.1113
21886SOL    HW167652   4.935   6.726   2.955 -0.6305  1.5195 -0.2030
21886SOL    HW267653   5.028   6.771   3.065 -0.1870 -0.3660  0.2220
21887SOL     OW67654   8.229   4.609   0.301 -0.1147  0.1124 -0.0883
21887SOL    HW167655   8.198   4.622   0.211 -1.9012 -0.3857  0.4011
21887SOL    HW267656   8.167   4.546   0.338 -0.0691  1.0998  1.7978
21888SOL     OW67657   2.025   8.061   5.672  0.0886 -0.0860  0.0419
21888SOL    HW167658   2.079   8.070   5.593 -0.0373 -0.5950 -0.1092
21888SOL    HW267659   2.074   8.001   5.728  0.0118 -0.0001  0.2016
21889SOL     OW67660   7.113   4.321   3.588  0.2429  0.0363  0.1344
21889SOL    HW167661   7.140   4.268   3.664 -2.6805  1.2732  2.2303
21889SOL    HW267662   7.151   4.407   3.604  0.4872  0.0348 -0.4058
21890SOL     OW67663   0.011   0.852   3.502  0.2167  0.0157 -0.0877
21890SOL    HW167664   0.006   0.921   3.568  1.1206  0.1706 -0.1757
21890SOL    HW267665   0.081   0.795   3.532  0.3306 -0.1618 -0.6814
21891SOL     OW67666   0.973   8.445   6.265  0.5027 -0.3240 -0.4006
21891SOL    HW167667   0.883   8.413   6.269  0.8732 -1.3694  0.1365
21891SOL    HW267668   0.987   8.469   6.173 -0.7812  1.3153 -0.2133
21892SOL     OW67669   8.200   8.338   0.577 -0.2017 -0.0922  0.2716
21892SOL    HW167670   8.266   8.309   0.640  1.2352  3.1214  0.4469
21892SOL    HW267671   8.151   8.406   0.623 -0.6112  0.7576 -1.3378
21893SOL     OW67672   5.587   0.421   5.108 -0.0371  0.9214  0.0136
21893SOL    HW167673   5.529   0.497   5.113 -2.2570 -0.7662  1.8220
21893SOL    HW267674   5.556   0.372   5.032 -1.5566 -0.3177  1.3578
21894SOL     OW67675   1.627   4.441   5.775 -0.2971  0.5256  0.6514
21894SOL    HW167676   1.608   4.523   5.821 -1.8819  0.3641  0.3528
21894SOL    HW267677   1.632   4.376   5.845  3.7639  1.1922  1.2210
21895SOL     OW67678   1.531   5.206   2.384 -0.7480  0.2625  0.0408
21895SOL    HW167679   1.545   5.124   2.337  0.0742  0.1890  0.4009
21895SOL    HW267680   1.515   5.180   2.475 -2.0226  0.4209 -0.1226
21896SOL     OW67681   2.624   3.665   5.688 -0.3957 -0.1865  0.0418
21896SOL    HW167682   2.673   3.719   5.751 -0.3993  0.4159 -0.4669
21896SOL    HW267683   2.613   3.722   5.612 -2.1906 -0.1881  0.2648
21897SOL     OW67684   6.566   5.339   5.951 -0.8084 -0.4075 -0.0450
21897SOL    HW167685   6.622   5.369   6.024  1.6459 -1.4361 -1.3698
21897SOL    HW267686   6.601   5.253   5.929 -1.5353 -0.1757 -2.3556
21898SOL     OW67687   2.604   2.705   4.645  0.0089 -0.4147 -0.1739
21898SOL    HW167688   2.539   2.774   4.645 -2.0436 -2.1988  1.2762
21898SOL    HW267689   2.662   2.726   4.718  1.0281  1.0709 -1.3461
21899SOL     OW67690   4.095   0.893   0.223 -0.2464  0.0822 -0.2519
21899SOL    HW167691   4.131   0.805   0.208 -1.1005 -0.2830 -0.2035
21899SOL    HW267692   4.172   0.947   0.243  0.4083 -0.4326 -1.2691
21900SOL     OW67693   0.389   2.425   4.064 -0.1696 -0.5821 -0.3189
21900SOL    HW167694   0.430   2.347   4.103 -1.9035 -1.6686 -0.5462
21900SOL    HW267695   0.299   2.423   4.096 -0.7406  0.3297 -1.7716
21901SOL     OW67696   7.676   3.957   0.450  0.4236  0.1364  0.1756
21901SOL    HW167697   7.598   3.968   0.504  0.2175 -1.0927  0.1662
21901SOL    HW267698   7.650   3.894   0.382  1.2512  0.1362 -0.1562
21902SOL     OW67699   2.112   1.151   0.312 -0.6136  0.5717 -0.0070
21902SOL    HW167700   2.138   1.241   0.332 -0.8670  0.4342  1.0288
21902SOL    HW267701   2.050   1.159   0.240 -1.6639  1.3614  0.9458
21903SOL     OW67702   5.369   1.375   3.748 -0.0929  0.8684  0.0992
21903SOL    HW167703   5.315   1.435   3.801 -0.7401 -0.3874  0.9220
21903SOL    HW267704   5.455   1.378   3.790 -0.4787  0.2379  0.9805
21904SOL     OW67705   7.190   0.876   6.027  0.2576  0.3962  0.1497
21904SOL    HW167706   7.095   0.870   6.032  0.0814  2.4406  0.2851
21904SOL    HW267707   7.213   0.830   5.946 -0.6353 -1.5121  0.9179
21905SOL     OW67708   2.605   3.091   0.792 -0.3756  0.3340 -0.2794
21905SOL    HW167709   2.671   3.023   0.778  0.7757  0.9256  1.8440
21905SOL    HW267710   2.644   3.171   0.756 -0.0819  0.5905  0.5703
21906SOL     OW67711   3.210   1.432   5.175 -0.1192 -0.5219 -0.1960
21906SOL    HW167712   3.246   1.358   5.225  0.7906  0.2820  0.3810
21906SOL    HW267713   3.139   1.465   5.230 -0.3071 -0.7553 -0.2959
21907SOL     OW67714   8.175   1.522   8.178  0.9986 -0.0790  0.0620
21907SOL    HW167715   8.256   1.544   8.223 -0.1643  0.5845  1.9642
21907SOL    HW267716   8.117   1.492   8.248 -1.3155  2.1144 -0.7662
21908SOL     OW67717   2.283   3.298   3.913  0.3075 -0.0890 -0.6296
21908SOL    HW167718   2.245   3.273   3.997  0.3408  1.1196 -0.2424
21908SOL    HW267719   2.260   3.390   3.902  0.9965 -0.0126 -1.5638
21909SOL     OW67720   4.642   3.575   5.068  0.4831 -0.2080 -0.0435
21909SOL    HW167721   4.675   3.659   5.099 -3.3590  1.5259 -0.1776
21909SOL    HW267722   4.676   3.567   4.979 -0.0062  1.7937 -0.4440
21910SOL     OW67723   3.914   3.015   0.303 -0.4992  0.1232 -0.0763
21910SOL    HW167724   3.969   2.938   0.290 -1.7926 -0.8253 -0.0388
21910SOL    HW267725   3.828   2.991   0.268 -1.6292  0.6420  2.1613
21911SOL     OW67726   1.296   7.339   0.541  0.1404  0.1892 -0.6641
21911SOL    HW167727   1.254   7.253   0.539 -1.8174  1.1161 -1.8334
21911SOL    HW267728   1.347   7.342   0.460  0.1206  0.1804 -0.6767
21912SOL     OW67729   0.411   1.684   1.130  0.0150  0.0951 -0.5225
21912SOL    HW167730   0.325   1.696   1.169  0.1722  0.2014 -0.2052
21912SOL    HW267731   0.400   1.612   1.068 -0.5195  0.7126 -1.1584
21913SOL     OW67732   2.703   8.402   8.146  0.0158  0.5402 -0.1412
21913SOL    HW167733   2.651   8.361   8.076  1.0768  1.2041 -1.3476
21913SOL    HW267734   2.769   8.336   8.168  0.0061  0.5407 -0.1107
21914SOL     OW67735   5.949   5.406   3.465 -0.1374 -0.4829 -0.0611
21914SOL    HW167736   5.917   5.348   3.396  1.0742 -1.1653 -0.0663
21914SOL    HW267737   5.903   5.376   3.544 -0.1533 -0.8873 -0.2225
21915SOL     OW67738   5.917   6.112   8.172  0.0622  0.5427 -0.0765
21915SOL    HW167739   5.914   6.091   8.266  0.3840  1.8175  0.2351
21915SOL    HW267740   5.872   6.038   8.130 -1.5479  0.7056  1.2211
21916SOL     OW67741   2.389   3.354   3.473  0.4398 -0.6805 -0.2427
21916SOL    HW167742   2.310   3.331   3.522 -0.1510 -0.1102 -0.9189
21916SOL    HW267743   2.427   3.427   3.523  0.2944 -0.6537 -0.1695
21917SOL     OW67744   8.847   2.839   3.084 -0.3498  0.3463  0.2702
21917SOL    HW167745   8.773   2.870   3.136 -0.0362  2.5760 -0.4916
21917SOL    HW267746   8.820   2.855   2.993 -1.0489 -3.7772 -0.4646
21918SOL     OW67747   0.489   2.657   7.479  0.1852  0.1298  0.3006
21918SOL    HW167748   0.496   2.746   7.512 -1.0823  0.1927  0.4499
21918SOL    HW267749   0.461   2.605   7.554 -2.8583  0.2984 -0.5759
21919SOL     OW67750   0.178   0.669   1.118 -0.5236 -0.0549  0.1602
21919SOL    HW167751   0.182   0.722   1.198  0.0785 -0.7769  0.6178
21919SOL    HW267752   0.216   0.585   1.143 -0.1438 -0.2240 -0.9426
21920SOL     OW67753   2.486   0.873   8.417  0.1431  0.3239 -0.2369
21920SOL    HW167754   2.439   0.943   8.463 -0.9464 -0.3836 -0.2425
21920SOL    HW267755   2.480   0.897   8.324 -1.3417 -0.3851 -0.3610
21921SOL     OW67756   2.008   8.837   5.624  0.2391  0.1891 -0.0582
21921SOL    HW167757   1.933   8.871   5.672 -0.7590  0.0998 -1.4709
21921SOL    HW267758   1.996   8.742   5.625  0.6653  0.1361  0.2141
21922SOL     OW67759   1.010   8.550   1.819 -0.6388  0.3453  0.4111
21922SOL    HW167760   0.918   8.567   1.840 -1.2678 -2.2887  0.1113
21922SOL    HW267761   1.020   8.583   1.730 -1.8272 -0.9122 -0.2284
21923SOL     OW67762   4.640   4.393   7.003  0.2523  0.3492  0.4550
21923SOL    HW167763   4.686   4.316   7.038  0.8692  0.8069  0.6554
21923SOL    HW267764   4.663   4.464   7.062  0.2812  0.8559 -0.1525
21924SOL     OW67765   2.595   3.838   5.494 -0.2569  0.5365  0.5157
21924SOL    HW167766   2.593   3.810   5.402  0.2753  2.5785 -0.1671
21924SOL    HW267767   2.509   3.878   5.508  0.2413  1.6861  0.3906
21925SOL     OW67768   6.134   4.431   4.413 -0.6468 -0.9065  0.2103
21925SOL    HW167769   6.105   4.455   4.325 -1.1072 -1.3369  0.2382
21925SOL    HW267770   6.191   4.355   4.400  0.1630 -0.2937  0.1899
21926SOL     OW67771   6.350   1.501   7.513 -0.3372 -0.6001  0.3374
21926SOL    HW167772   6.332   1.409   7.528 -0.5793 -0.5454  0.3974
21926SOL    HW267773   6.369   1.536   7.600  2.5053 -1.1458  0.0306
21927SOL     OW67774   2.662   4.844   6.571  0.8523  0.3220 -0.6896
21927SOL    HW167775   2.621   4.926   6.597  0.5617  0.8504 -2.6377
21927SOL    HW267776   2.627   4.779   6.632 -1.2557  1.1397 -0.9364
21928SOL     OW67777   6.338   1.168   6.108  0.1818  0.1878 -0.2508
21928SOL    HW167778   6.269   1.105   6.089  1.7112 -1.0933 -1.9703
21928SOL    HW267779   6.296   1.254   6.098 -1.4631 -0.5378  0.1551
21929SOL     OW67780   3.256   1.565   0.859  0.3686  0.0767  0.2170
21929SOL    HW167781   3.316   1.575   0.786  2.7705 -2.3190  1.6870
21929SOL    HW267782   3.205   1.486   0.838  1.1890 -0.7265  1.1044
21930SOL     OW67783   7.490   1.523   6.619 -0.2035 -0.1992  0.6984
21930SOL    HW167784   7.481   1.609   6.660  1.4891  1.0472 -1.3389
21930SOL    HW267785   7.475   1.540   6.526  0.2584 -2.1232  0.2355
21931SOL     OW67786   8.412   1.659   7.798 -0.1598 -0.4088 -0.1858
21931SOL    HW167787   8.351   1.665   7.724 -0.8544  1.5236  0.4733
21931SOL    HW267788   8.494   1.696   7.764 -0.2652 -0.1959 -0.2157
21932SOL     OW67789   4.687   3.501   6.578 -0.8513  0.2526  0.4877
21932SOL    HW167790   4.604   3.481   6.621 -0.9923  0.2009  0.1983
21932SOL    HW267791   4.741   3.542   6.646 -0.4816 -1.2721  1.1708
21933SOL     OW67792   7.808   7.831   8.622  0.8690  0.1268 -0.1349
21933SOL    HW167793   7.753   7.770   8.573  0.5058  0.8049 -0.5952
21933SOL    HW267794   7.886   7.781   8.645  1.2206 -0.1030 -1.7374
21934SOL     OW67795   1.320   5.589   6.070 -0.2592  0.0631 -0.2326
21934SOL    HW167796   1.387   5.571   6.136 -0.2007 -0.2292 -0.3721
21934SOL    HW267797   1.238   5.597   6.120 -0.0271  1.0581  0.0135
21935SOL     OW67798   1.007   3.013   5.791 -0.6899  0.2515  0.0781
21935SOL    HW167799   1.035   3.098   5.757  1.2988  0.2140  1.4602
21935SOL    HW267800   1.079   2.953   5.768 -1.2504 -0.6783  0.6680
21936SOL     OW67801   1.959   4.609   5.628 -0.5153  0.6486 -0.6686
21936SOL    HW167802   2.055   4.608   5.624 -0.4275 -0.8907  0.6555
21936SOL    HW267803   1.939   4.647   5.714 -0.9367 -1.9149  0.4631
21937SOL     OW67804   6.348   8.079   8.490  0.1209  0.3569 -0.8493
21937SOL    HW167805   6.322   7.999   8.445  1.0347  0.7174 -2.0791
21937SOL    HW267806   6.266   8.117   8.522 -0.2241 -1.7854  1.1096
21938SOL     OW67807   5.210   3.076   7.075 -1.1189 -0.0272  0.5173
21938SOL    HW167808   5.276   3.142   7.054 -1.6674  0.2620 -0.3463
21938SOL    HW267809   5.257   2.992   7.069 -0.2279  0.3040  2.3921
21939SOL     OW67810   3.243   6.079   1.278  0.6499  0.8301 -0.0486
21939SOL    HW167811   3.212   6.154   1.227 -0.8725 -0.4358 -1.0917
21939SOL    HW267812   3.179   6.071   1.350  2.0193  1.7764  1.3521
21940SOL     OW67813   0.188   4.480   0.298  0.3472  0.0325  0.0703
21940SOL    HW167814   0.127   4.452   0.366 -1.3758  0.3736 -1.2474
21940SOL    HW267815   0.271   4.437   0.320 -0.2064 -0.0292  2.2231
21941SOL     OW67816   5.728   5.885   0.214 -0.4608  0.3242  0.3604
21941SOL    HW167817   5.813   5.851   0.240  0.1358  1.8771  0.5820
21941SOL    HW267818   5.746   5.935   0.134 -1.0298  1.1773  0.7513
21942SOL     OW67819   4.932   2.459   0.103  0.6327 -0.0046  0.2626
21942SOL    HW167820   4.922   2.364   0.109 -0.3969  0.0780  0.0155
21942SOL    HW267821   4.946   2.475   0.010 -1.0553  0.2312  0.0248
21943SOL     OW67822   1.361   0.440   5.224 -0.3335 -0.0697 -0.3849
21943SOL    HW167823   1.437   0.393   5.189 -1.3433  0.7830 -4.1854
21943SOL    HW267824   1.379   0.448   5.318  3.4099 -1.4068 -0.8071
21944SOL     OW67825   6.511   2.652   7.784  0.0557  0.2756  0.1401
21944SOL    HW167826   6.415   2.653   7.785  0.0064  2.0944 -0.9521
21944SOL    HW267827   6.535   2.733   7.739  2.0894 -0.9470 -1.1265
21945SOL     OW67828   4.428   2.721   2.600 -0.5123 -0.0106 -0.1077
21945SOL    HW167829   4.343   2.703   2.640 -0.6371  2.2514  0.7279
21945SOL    HW267830   4.411   2.716   2.505 -1.3569 -0.3783  0.0530
21946SOL     OW67831   0.650   7.850   5.809 -0.2120  0.1646  0.6469
21946SOL    HW167832   0.696   7.821   5.887 -0.9065 -1.2651  0.5487
21946SOL    HW267833   0.709   7.914   5.769  1.4239 -1.1658  0.8349
21947SOL     OW67834   7.285   5.955   3.152 -0.2590 -0.1711  0.1940
21947SOL    HW167835   7.209   5.932   3.099  0.6390  1.8907 -2.1575
21947SOL    HW267836   7.254   6.026   3.209 -0.3660 -0.0979  0.0439
21948SOL     OW67837   8.306   3.932   0.311 -0.0793  0.1756  0.0207
21948SOL    HW167838   8.324   4.024   0.330  0.7932  0.3318 -1.4413
21948SOL    HW267839   8.273   3.932   0.221 -0.5938 -0.9016  0.1902
21949SOL     OW67840   8.203   1.785   0.094  0.2183 -0.0273 -0.1580
21949SOL    HW167841   8.262   1.778   0.169 -0.1236  1.2315  0.2382
21949SOL    HW267842   8.123   1.822   0.130 -0.3729 -0.5307 -0.9363
21950SOL     OW67843   6.638   5.386   8.231 -0.4851  0.0482 -0.3452
21950SOL    HW167844   6.668   5.311   8.180 -0.3979 -0.2296  0.1074
21950SOL    HW267845   6.610   5.450   8.166 -2.8581 -1.2938 -0.7514
21951SOL     OW67846   3.039   6.240   7.024 -0.1158  0.1032  0.1471
21951SOL    HW167847   3.029   6.145   7.020  2.6401 -0.2935  0.5325
21951SOL    HW267848   2.966   6.269   7.079 -0.1532 -1.9762  1.3220
21952SOL     OW67849   7.299   2.854   4.552  0.0474  0.0406  0.3465
21952SOL    HW167850   7.241   2.868   4.477  0.0177  0.4787  0.4507
21952SOL    HW267851   7.339   2.768   4.535 -1.0620 -0.5342  0.5676
21953SOL     OW67852   4.107   8.125   1.682 -0.2159 -0.2025  0.1125
21953SOL    HW167853   4.094   8.219   1.665 -1.0855 -0.2583  0.4122
21953SOL    HW267854   4.124   8.120   1.776 -0.7438 -0.4021  0.1972
21954SOL     OW67855   8.481   7.977   3.834  0.1660  0.2110  0.2968
21954SOL    HW167856   8.531   8.025   3.900 -0.4082  2.5657 -0.8419
21954SOL    HW267857   8.537   7.981   3.756  1.5055 -3.7911  0.8339
21955SOL     OW67858   7.982   5.810   5.424  0.5810  0.0785 -0.2969
21955SOL    HW167859   8.004   5.770   5.340  1.0462  1.8403 -1.0546
21955SOL    HW267860   7.998   5.741   5.488  2.7150 -0.5401 -1.4041
21956SOL     OW67861   2.305   3.858   4.805  0.6957  0.5087  0.9363
21956SOL    HW167862   2.272   3.947   4.815  2.1984  1.1093  0.7798
21956SOL    HW267863   2.257   3.823   4.730 -0.0445  1.1155  1.1184
21957SOL     OW67864   0.328   3.779   5.330 -0.0289  0.0025  0.1575
21957SOL    HW167865   0.336   3.690   5.296 -2.6411  0.6248 -2.4146
21957SOL    HW267866   0.289   3.829   5.259 -1.4353  2.5392  2.5346
21958SOL     OW67867   1.748   5.265   5.752 -0.2018  0.0419  0.3910
21958SOL    HW167868   1.670   5.272   5.807 -0.1289  0.4403  0.4507
21958SOL    HW267869   1.761   5.171   5.740 -1.1315 -0.0132 -0.2539
21959SOL     OW67870   3.919   5.256   6.619 -0.2788  0.2726  0.3030
21959SOL    HW167871   3.999   5.262   6.672 -0.4077 -0.3365  0.5717
21959SOL    HW267872   3.866   5.330   6.649  1.1636  2.1911 -1.5882
21960SOL     OW67873   2.695   1.060   4.846 -0.3088 -0.2195 -0.5321
21960SOL    HW167874   2.665   1.078   4.757 -0.2112  1.8364 -0.1956
21960SOL    HW267875   2.787   1.088   4.846  0.5027 -2.6567 -0.4571
21961SOL     OW67876   6.719   1.958   8.733  0.2027 -0.4394  0.4947
21961SOL    HW167877   6.804   1.967   8.775  0.7201 -0.6582 -0.4709
21961SOL    HW267878   6.683   1.876   8.768  0.1677 -0.0976  1.2704
21962SOL     OW67879   8.817   1.515   3.857 -0.1753  0.4052 -0.1579
21962SOL    HW167880   8.768   1.432   3.857  1.3127 -0.5220  0.5964
21962SOL    HW267881   8.756   1.579   3.892 -0.8896 -0.6971  0.6851
21963SOL     OW67882   0.996   3.660   0.474  0.4333  0.3249 -0.2952
21963SOL    HW167883   0.910   3.702   0.475  0.7166  0.9166  0.7731
21963SOL    HW267884   0.985   3.579   0.523  0.4798  0.3830 -0.1889
21964SOL     OW67885   1.752   3.792   0.603 -0.0945 -0.4021  0.2968
21964SOL    HW167886   1.811   3.816   0.675 -0.0510  0.9453 -0.1676
21964SOL    HW267887   1.744   3.697   0.610  1.6075 -0.5479  0.7907
21965SOL     OW67888   0.636   2.688   3.001 -0.4628  0.2389 -0.2050
21965SOL    HW167889   0.590   2.637   2.934 -0.6957  1.3954 -0.9385
21965SOL    HW267890   0.694   2.746   2.952  0.4923  0.0417  0.6595
21966SOL     OW67891   5.345   1.183   5.664 -0.0444  0.4186  0.3714
21966SOL    HW167892   5.431   1.145   5.681 -0.6119 -0.1199  2.3053
21966SOL    HW267893   5.343   1.262   5.719 -1.0420  0.0200  0.9306
21967SOL     OW67894   6.904   8.099   8.457 -0.2259 -0.3484 -0.1563
21967SOL    HW167895   6.914   8.108   8.552  0.3770 -1.6257 -0.0672
21967SOL    HW267896   6.858   8.178   8.430 -2.4383 -0.9160  1.5213
21968SOL     OW67897   5.236   5.260   2.278 -0.1310  0.2550 -0.4871
21968SOL    HW167898   5.271   5.341   2.316  1.9664 -0.5044 -0.6911
21968SOL    HW267899   5.254   5.193   2.344  1.5777 -0.6894 -1.8353
21969SOL     OW67900   7.062   0.698   4.359 -0.4477 -0.1714  0.1876
21969SOL    HW167901   7.128   0.686   4.290  0.4930 -1.0584  1.2180
21969SOL    HW267902   7.113   0.705   4.440 -1.5649  0.3889  0.8632
21970SOL     OW67903   7.828   2.704   4.846  0.6290  0.1281  0.7222
21970SOL    HW167904   7.767   2.777   4.842 -1.9206 -1.8846 -0.1989
21970SOL    HW267905   7.839   2.676   4.755  0.6839 -1.2885  1.1442
21971SOL     OW67906   4.640   7.763   3.063 -0.2120  1.0935 -0.9572
21971SOL    HW167907   4.596   7.794   3.143 -0.6313  3.0007 -1.8720
21971SOL    HW267908   4.569   7.726   3.010  0.1741 -0.8556 -0.1970
21972SOL     OW67909   6.560   1.522   1.549  0.6555 -0.0715 -0.2481
21972SOL    HW167910   6.560   1.537   1.643 -0.9152 -0.7289 -0.1146
21972SOL    HW267911   6.650   1.537   1.522  1.1360  0.0804  1.3605
21973SOL     OW67912   7.239   5.623   8.784  0.0029  0.2010 -0.3673
21973SOL    HW167913   7.324   5.581   8.772 -1.1620 -3.0446  1.5494
21973SOL    HW267914   7.229   5.679   8.707  2.4369 -1.8327 -2.3259
21974SOL     OW67915   1.133   8.796   4.379 -0.2319  0.3105 -0.0341
21974SOL    HW167916   1.057   8.853   4.389 -0.9943 -0.2598 -2.0324
21974SOL    HW267917   1.203   8.855   4.351  0.1143  0.8374  1.8169
21975SOL     OW67918   5.623   3.704   3.633  0.0121 -1.0607 -0.2833
21975SOL    HW167919   5.562   3.686   3.705  0.7120 -3.4902 -0.2227
21975SOL    HW267920   5.706   3.723   3.677  0.2236 -1.6565 -0.4217
21976SOL     OW67921   6.051   2.276   4.481  0.6150 -0.1141 -0.3980
21976SOL    HW167922   6.060   2.183   4.504 -0.4891 -0.1440 -0.0387
21976SOL    HW267923   5.982   2.278   4.415 -0.6107  0.6045  0.8573
21977SOL     OW67924   5.257   0.708   6.892  0.2741 -0.4009  0.8243
21977SOL    HW167925   5.326   0.643   6.874  0.0919 -0.4549  0.3141
21977SOL    HW267926   5.235   0.744   6.806 -1.8721 -1.9371  0.6597
21978SOL     OW67927   1.451   4.119   2.115  0.0846  0.1329  0.3191
21978SOL    HW167928   1.521   4.168   2.159 -0.5153 -0.0549  1.5065
21978SOL    HW267929   1.402   4.186   2.067  2.3218  0.0290 -2.3884
21979SOL     OW67930   2.235   8.140   5.498  0.8444  0.1449  0.3329
21979SOL    HW167931   2.253   8.182   5.415  1.1313 -0.3659  0.1313
21979SOL    HW267932   2.269   8.201   5.564 -1.0266  1.4338  0.1963
21980SOL     OW67933   1.071   8.814   2.681 -0.3216 -0.2994  0.5037
21980SOL    HW167934   1.083   8.853   2.595 -0.6039 -2.5725 -0.6507
21980SOL    HW267935   1.112   8.875   2.742 -1.3511  2.0741 -1.0480
21981SOL     OW67936   6.163   1.942   5.832  0.3880 -0.4835  0.7866
21981SOL    HW167937   6.146   1.956   5.738  1.0690 -0.0986  0.7168
21981SOL    HW267938   6.167   1.847   5.841  1.4089 -0.5115  0.2164
21982SOL     OW67939   7.472   1.803   4.297  0.2280  0.0081  0.0862
21982SOL    HW167940   7.542   1.864   4.271  0.4988  1.0554  2.9244
21982SOL    HW267941   7.463   1.815   4.391 -1.6920 -2.3691  0.3174
21983SOL     OW67942   6.236   2.702   0.561  0.2846  0.2288  0.1412
21983SOL    HW167943   6.297   2.774   0.545  0.2413  0.0787 -0.7355
21983SOL    HW267944   6.279   2.649   0.629  1.0265  0.2473 -0.3023
21984SOL     OW67945   0.105   8.667   1.158  0.0779  0.1089 -0.3307
21984SOL    HW167946   0.129   8.759   1.168 -3.3506  1.1877 -0.7762
21984SOL    HW267947   0.051   8.648   1.235  0.2866 -1.3879 -0.5187
21985SOL     OW67948   6.510   4.071   3.194  0.5014 -0.3224  0.5937
21985SOL    HW167949   6.523   4.145   3.135 -0.4515 -0.9805 -0.4682
21985SOL    HW267950   6.589   4.070   3.248 -0.0071  2.2566  1.5342
21986SOL     OW67951   0.610   1.776   7.197 -0.2953  0.3143 -0.4229
21986SOL    HW167952   0.687   1.834   7.193 -0.3186  0.3656 -0.1170
21986SOL    HW267953   0.552   1.817   7.260  0.2245 -0.6915  0.7368
21987SOL     OW67954   0.522   7.422   3.787 -0.0947 -0.3692  0.2515
21987SOL    HW167955   0.595   7.476   3.757 -0.6665 -1.6371 -3.9904
21987SOL    HW267956   0.556   7.333   3.787 -0.2505 -0.5440  3.4932
21988SOL     OW67957   5.409   8.364   3.119 -0.3066 -0.3450 -0.4140
21988SOL    HW167958   5.466   8.440   3.132 -1.3216  0.2400  0.8705
21988SOL    HW267959   5.422   8.311   3.198 -1.5668 -0.1649 -0.0631
21989SOL     OW67960   8.029   6.260   8.405 -0.3297  0.4045 -0.0927
21989SOL    HW167961   8.008   6.337   8.354  0.2697  0.8636  0.3407
21989SOL    HW267962   8.003   6.282   8.494 -1.3663 -0.3883 -0.1692
21990SOL     OW67963   6.468   2.407   4.206  0.4682  0.2174 -0.1667
21990SOL    HW167964   6.563   2.407   4.215  0.8164  0.2765 -2.8813
21990SOL    HW267965   6.442   2.317   4.226  1.2463 -0.0801 -0.4656
21991SOL     OW67966   4.120   2.826   4.246  0.1939 -0.1198  0.0221
21991SOL    HW167967   4.115   2.762   4.175 -1.1534  0.5780 -0.5421
21991SOL    HW267968   4.208   2.864   4.238  0.5531 -1.0050 -0.4116
21992SOL     OW67969   0.863   1.862   1.913  0.3147  0.3464 -0.1806
21992SOL    HW167970   0.895   1.939   1.961 -0.7654  0.0148  1.1286
21992SOL    HW267971   0.768   1.872   1.912  0.1894 -0.7200 -0.4539
21993SOL     OW67972   7.916   4.196   3.525 -0.2543 -0.4849 -0.2689
21993SOL    HW167973   7.947   4.229   3.610 -0.3891  0.2127 -0.4882
21993SOL    HW267974   7.911   4.273   3.469 -0.2280 -0.9335 -0.9011
21994SOL     OW67975   7.512   4.717   6.466 -0.0302 -0.1306  0.0515
21994SOL    HW167976   7.435   4.750   6.513  0.7034  0.7741  0.6468
21994SOL    HW267977   7.476   4.657   6.400 -1.1970 -0.1429  0.6799
21995SOL     OW67978   7.082   2.414   3.825  0.1263  0.0936 -0.6299
21995SOL    HW167979   6.991   2.392   3.842  0.1086 -0.0696 -0.9327
21995SOL    HW267980   7.125   2.329   3.811  0.5099  0.1001  0.4187
21996SOL     OW67981   2.283   6.048   1.989  0.0944  0.0234 -0.1650
21996SOL    HW167982   2.199   6.065   2.032  0.5777 -1.8844  1.7090
21996SOL    HW267983   2.261   5.991   1.915 -0.2728 -0.7471  0.5152
21997SOL     OW67984   2.332   5.464   5.794  0.5330 -0.5402 -0.5365
21997SOL    HW167985   2.321   5.547   5.748 -0.2624 -1.3845 -1.9592
21997SOL    HW267986   2.369   5.488   5.879 -0.8559  1.3871 -0.4087
21998SOL     OW67987   0.914   1.679   6.324 -0.4988  0.3197 -0.0847
21998SOL    HW167988   0.923   1.630   6.407 -0.2652  0.6776  0.1047
21998SOL    HW267989   0.933   1.614   6.256  0.3342  0.2558  0.1867
21999SOL     OW67990   0.748   6.001   7.865  0.2533  0.5435 -0.1619
21999SOL    HW167991   0.743   5.918   7.819  2.1730  0.5609 -0.4965
21999SOL    HW267992   0.695   5.989   7.943  0.8863 -1.1709  0.0405
22000SOL     OW67993   2.277   4.338   6.182 -0.5058 -0.4796  0.7425
22000SOL    HW167994   2.351   4.285   6.152 -1.0505 -0.9444  0.1995
22000SOL    HW267995   2.218   4.341   6.107 -0.4576  0.9582  0.7446
22001SOL     OW67996   5.440   0.592   6.487  0.4334  0.4249  0.1682
22001SOL    HW167997   5.374   0.527   6.462 -0.0135  0.8755  0.1636
22001SOL    HW267998   5.502   0.543   6.540 -0.2588  0.1333  0.7298
22002SOL     OW67999   0.347   8.570   1.523  0.0186  0.8287  0.3468
22002SOL    HW168000   0.330   8.646   1.466 -0.6583 -0.0340 -0.6541
22002SOL    HW268001   0.391   8.507   1.466 -0.6323 -0.0438  0.7857
22003SOL     OW68002   7.545   7.670   0.455  0.3603 -0.2168 -0.1396
22003SOL    HW168003   7.506   7.584   0.443  0.0003 -0.6826  3.2698
22003SOL    HW268004   7.515   7.698   0.542  1.4446  2.8258 -0.6250
22004SOL     OW68005   1.393   0.601   1.822 -0.1215 -0.0452 -0.5338
22004SOL    HW168006   1.399   0.562   1.734  1.1928 -0.0943 -0.4500
22004SOL    HW268007   1.474   0.651   1.831 -0.2668 -0.0015  0.6359
22005SOL     OW68008   1.799   0.541   8.367 -0.6513  0.1915  0.0227
22005SOL    HW168009   1.851   0.583   8.435  1.1722  0.2925 -1.3605
22005SOL    HW268010   1.728   0.498   8.414 -0.6356  1.9471  1.7811
22006SOL     OW68011   7.520   0.758   7.460  0.4049  0.4813 -0.4408
22006SOL    HW168012   7.578   0.696   7.504 -0.3288 -0.6152 -0.9732
22006SOL    HW268013   7.567   0.841   7.465  2.1203 -0.3868 -1.0218
22007SOL     OW68014   5.602   8.376   1.531  0.1458  0.1664 -0.6563
22007SOL    HW168015   5.587   8.285   1.556 -1.5070  0.5676 -0.0478
22007SOL    HW268016   5.561   8.385   1.445  2.0573 -0.1208 -1.6584
22008SOL     OW68017   7.461   5.943   4.348  0.9745 -0.7683 -0.3691
22008SOL    HW168018   7.488   6.010   4.411  0.7933 -0.0853 -1.0071
22008SOL    HW268019   7.422   5.874   4.401 -0.9214  0.6281  0.1545
22009SOL     OW68020   0.725   7.181   1.791  0.1271  0.2290 -0.6598
22009SOL    HW168021   0.724   7.239   1.867 -2.1965 -0.5765 -0.0004
22009SOL    HW268022   0.674   7.228   1.725 -0.3998 -0.3620 -0.6781
22010SOL     OW68023   3.069   8.353   2.954 -0.1601  0.1925  0.2225
22010SOL    HW168024   3.098   8.311   3.035  1.8978  1.7433  0.3513
22010SOL    HW268025   2.998   8.410   2.980 -0.5419 -0.4686  0.6536
22011SOL     OW68026   5.550   7.192   0.878 -0.0462 -0.5835  0.4000
22011SOL    HW168027   5.499   7.168   0.956 -0.8367  0.1561  0.1260
22011SOL    HW268028   5.522   7.129   0.811 -0.7072 -0.1050  0.2168
22012SOL     OW68029   8.259   1.954   5.846  0.0128  0.1253  0.9391
22012SOL    HW168030   8.223   1.891   5.783 -1.6004  1.6541  0.2154
22012SOL    HW268031   8.353   1.955   5.828 -0.2468 -0.3848 -0.6222
22013SOL     OW68032   4.100   1.871   6.787 -0.0912  0.5365 -0.2772
22013SOL    HW168033   4.017   1.909   6.758  0.6145  0.4294 -2.7135
22013SOL    HW268034   4.079   1.827   6.869 -2.1258  1.6050 -0.1440
22014SOL     OW68035   4.842   4.183   0.491  0.0818 -0.0797  0.2285
22014SOL    HW168036   4.874   4.183   0.581 -2.5021  1.8828  1.3061
22014SOL    HW268037   4.850   4.275   0.463  2.3396 -0.9075 -2.2436
22015SOL     OW68038   1.717   6.057   2.027  0.1320  0.1152 -0.2858
22015SOL    HW168039   1.731   6.127   2.090 -1.3703  1.6172 -1.4950
22015SOL    HW268040   1.790   6.065   1.966  2.0958 -1.9226  1.6269
22016SOL     OW68041   6.673   5.372   1.208 -0.1644  0.2808 -0.3732
22016SOL    HW168042   6.735   5.302   1.188 -0.2270  0.0772  0.1415
22016SOL    HW268043   6.728   5.446   1.234 -0.1514 -0.3915  1.6930
22017SOL     OW68044   0.062   3.978   6.732 -0.3587 -0.1881 -0.4025
22017SOL    HW168045   0.155   3.990   6.711 -0.3561  2.1557  0.6305
22017SOL    HW268046   0.018   4.048   6.685 -1.7963 -1.8398 -1.6420
22018SOL     OW68047   1.901   7.601   7.319 -0.1242 -0.3636 -0.3185
22018SOL    HW168048   1.929   7.650   7.241 -1.3261  1.1169  0.1352
22018SOL    HW268049   1.882   7.668   7.384  2.3546 -1.5781  1.8709
22019SOL     OW68050   5.860   4.175   2.343 -0.1979  0.1691 -0.6244
22019SOL    HW168051   5.915   4.134   2.276  0.8926  0.4019  0.0994
22019SOL    HW268052   5.894   4.265   2.350  0.4416 -0.1495  0.9706
22020SOL     OW68053   0.377   4.351   8.609  0.5989  0.2965 -0.3687
22020SOL    HW168054   0.467   4.321   8.600  0.0105 -0.9037 -3.3721
22020SOL    HW268055   0.330   4.274   8.642  0.3598  0.3296 -0.6330
22021SOL     OW68056   0.256   2.135   0.706  0.0404 -0.2250  0.1777
22021SOL    HW168057   0.204   2.057   0.723  0.1269 -0.4684 -0.6387
22021SOL    HW268058   0.194   2.199   0.670  0.0511 -0.0616  0.4462
22022SOL     OW68059   1.829   5.329   6.872  0.4166  0.1703 -0.1857
22022SOL    HW168060   1.878   5.376   6.939  1.7127 -0.8807 -0.3595
22022SOL    HW268061   1.847   5.236   6.889  0.2815 -0.1447 -1.6001
22023SOL     OW68062   8.516   4.351   8.559 -0.0623 -0.1221  0.7061
22023SOL    HW168063   8.558   4.297   8.492 -1.7700 -1.2887  0.5042
22023SOL    HW268064   8.478   4.288   8.620  0.6578  0.9129  2.3018
22024SOL     OW68065   0.257   6.685   0.827 -0.9958 -0.1476 -0.4848
22024SOL    HW168066   0.170   6.700   0.792 -1.6857  0.8538  1.5340
22024SOL    HW268067   0.304   6.767   0.813 -0.4298 -0.5891 -1.3097
22025SOL     OW68068   3.698   6.483   4.025  0.4890  0.1561 -0.5272
22025SOL    HW168069   3.606   6.459   4.027  0.3959  0.3817 -1.6007
22025SOL    HW268070   3.702   6.566   4.073 -0.3006  1.4453 -2.5880
22026SOL     OW68071   0.430   8.141   5.556  0.1770 -0.8847  0.2095
22026SOL    HW168072   0.502   8.109   5.502  0.7052  0.4459  0.0712
22026SOL    HW268073   0.363   8.074   5.549  1.1702 -1.8757 -0.1398
22027SOL     OW68074   5.773   7.641   2.553 -0.2593 -0.6071 -0.1204
22027SOL    HW168075   5.802   7.557   2.519  1.5269 -0.0132 -0.2211
22027SOL    HW268076   5.680   7.630   2.572 -0.3964 -2.1311 -1.5086
22028SOL     OW68077   1.482   5.736   5.135  0.2626 -0.0321  0.2601
22028SOL    HW168078   1.485   5.685   5.054  0.7539  1.5191 -0.7433
22028SOL    HW268079   1.390   5.763   5.143  0.1547 -0.4344  0.3826
22029SOL     OW68080   3.774   3.989   8.856 -0.2757 -0.1455  0.0390
22029SOL    HW168081   3.741   3.910   8.814 -0.9319  0.8599 -1.4418
22029SOL    HW268082   3.856   4.008   8.810 -0.6565  0.5948 -0.3665
22030SOL     OW68083   5.614   4.375   4.865 -0.8157 -0.0444  0.2198
22030SOL    HW168084   5.660   4.452   4.829  0.1018 -0.1092  1.1908
22030SOL    HW268085   5.524   4.404   4.877 -0.4388  0.9652  0.7494
22031SOL     OW68086   6.843   3.036   7.531  0.5347 -0.5470 -0.2541
22031SOL    HW168087   6.879   3.123   7.518 -1.5321  0.4566  0.4366
22031SOL    HW268088   6.818   3.007   7.443  1.7135 -0.7026 -0.5564
22032SOL     OW68089   4.039   4.650   4.943 -0.3903 -0.0723 -0.2176
22032SOL    HW168090   4.121   4.654   4.893 -0.2946 -0.3321 -0.0860
22032SOL    HW268091   4.052   4.710   5.016 -0.8689  0.9962 -0.9883
22033SOL     OW68092   2.119   4.472   6.434  0.1790  0.5538  0.1566
22033SOL    HW168093   2.207   4.470   6.470 -0.3646 -2.2059  1.6147
22033SOL    HW268094   2.125   4.421   6.353  0.0295  0.8437 -0.0394
22034SOL     OW68095   2.464   0.910   1.328  0.5664 -0.1483 -0.6485
22034SOL    HW168096   2.409   0.971   1.279  1.1171  0.7293 -0.1955
22034SOL    HW268097   2.422   0.825   1.316 -1.6746  0.6778  0.7932
22035SOL     OW68098   1.661   8.673   2.601  0.0742  0.2838 -0.0958
22035SOL    HW168099   1.622   8.586   2.607 -0.0139  0.3896  1.0795
22035SOL    HW268100   1.711   8.683   2.683 -0.9508  1.8235  0.3866
22036SOL     OW68101   2.812   7.330   5.245  0.4402  0.2358 -0.0326
22036SOL    HW168102   2.809   7.236   5.264 -2.2222  0.1099 -0.6612
22036SOL    HW268103   2.789   7.372   5.328  0.6168  0.2883 -0.0092
22037SOL     OW68104   4.245   5.945   7.290 -0.5965  0.2770  0.2781
22037SOL    HW168105   4.212   5.933   7.201  0.6540  1.9001 -0.4686
22037SOL    HW268106   4.329   5.990   7.278  0.0719 -0.3411  2.2475
22038SOL     OW68107   0.186   2.226   4.538 -0.3898 -0.0896  0.4388
22038SOL    HW168108   0.276   2.241   4.566 -0.5365 -0.6382  1.2264
22038SOL    HW268109   0.170   2.133   4.555 -2.2107  0.6443  3.7332
22039SOL     OW68110   7.421   5.373   3.812 -0.0106  0.1744  0.0905
22039SOL    HW168111   7.471   5.382   3.730 -1.9019  1.6491 -0.9665
22039SOL    HW268112   7.449   5.447   3.865 -0.5855  0.6395 -0.2461
22040SOL     OW68113   0.540   3.879   8.247 -0.2181 -0.3746  0.4186
22040SOL    HW168114   0.485   3.902   8.322  0.9267 -0.0687  1.1889
22040SOL    HW268115   0.592   3.957   8.230  0.2896 -0.7987 -0.0247
22041SOL     OW68116   5.005   4.109   8.628 -0.0671  0.5315 -0.7872
22041SOL    HW168117   4.974   4.149   8.547 -1.7856  1.5533  0.2885
22041SOL    HW268118   4.933   4.053   8.656 -0.7806  2.3331  1.3876
22042SOL     OW68119   0.852   8.637   2.758 -0.3236  0.0094  0.9713
22042SOL    HW168120   0.923   8.696   2.732  0.7270 -1.1226  1.1910
22042SOL    HW268121   0.798   8.630   2.679  0.5702 -0.1740  0.3513
22043SOL     OW68122   0.823   0.927   0.554 -0.0383  0.1053  0.2389
22043SOL    HW168123   0.867   0.947   0.637 -1.1581 -0.5489  1.0247
22043SOL    HW268124   0.736   0.967   0.563 -0.0877  0.2529 -0.7416
22044SOL     OW68125   5.334   7.374   5.816  0.3508 -0.1983 -0.5381
22044SOL    HW168126   5.301   7.448   5.868 -1.5613 -1.6237  0.4017
22044SOL    HW268127   5.401   7.334   5.870  1.1751  0.6328 -0.9191
22045SOL     OW68128   2.072   6.135   5.401 -0.0949  0.5217  0.4235
22045SOL    HW168129   2.082   6.219   5.356 -0.2569  0.6465  0.6232
22045SOL    HW268130   2.058   6.157   5.493  1.7553  0.2266  0.8213
22046SOL     OW68131   0.192   4.700   3.290  0.4642  0.1921 -0.4061
22046SOL    HW168132   0.212   4.625   3.346  0.4001  0.3035 -0.2328
22046SOL    HW268133   0.271   4.754   3.295 -0.2452  1.1517  1.1166
22047SOL     OW68134   3.985   6.334   8.474 -0.3294 -0.2350  0.3581
22047SOL    HW168135   3.993   6.259   8.533 -1.1377  0.0526  0.8495
22047SOL    HW268136   3.895   6.330   8.442 -0.3559  0.4691  0.3208
22048SOL     OW68137   8.733   7.144   5.868 -0.3950 -0.2182  0.5309
22048SOL    HW168138   8.811   7.178   5.823  0.3059 -0.6384  1.3925
22048SOL    HW268139   8.724   7.200   5.945 -1.6409  0.5545 -0.1390
22049SOL     OW68140   0.884   0.981   7.466 -0.1004  0.3384  0.3473
22049SOL    HW168141   0.909   1.067   7.432 -0.7126  0.0137 -0.9886
22049SOL    HW268142   0.917   0.919   7.401 -0.0183 -0.4137  1.0977
22050SOL     OW68143   6.679   3.715   5.488 -0.3870 -0.2468  0.3052
22050SOL    HW168144   6.607   3.738   5.547  0.5680  1.0546  1.0193
22050SOL    HW268145   6.708   3.798   5.451 -0.1540 -0.9131 -1.0708
22051SOL     OW68146   0.359   3.567   4.194  0.0893 -0.0787  0.0427
22051SOL    HW168147   0.373   3.480   4.156  0.5645  0.3942 -0.9034
22051SOL    HW268148   0.369   3.627   4.121 -3.3642  0.6196  0.0073
22052SOL     OW68149   1.287   3.955   8.226  0.3051  0.4239 -0.1143
22052SOL    HW168150   1.233   3.880   8.251  1.1438 -0.2476 -0.2882
22052SOL    HW268151   1.229   4.011   8.175 -0.4284  0.0710  0.3228
22053SOL     OW68152   0.070   1.712   7.392  0.0196 -0.4200  0.3214
22053SOL    HW168153   0.150   1.701   7.341 -0.8867  0.2714 -1.3179
22053SOL    HW268154   0.071   1.639   7.454  1.1756 -1.2858 -0.6669
22054SOL     OW68155   1.339   6.769   4.073  0.0419 -0.0867 -0.0392
22054SOL    HW168156   1.411   6.824   4.103  1.2893 -1.2701 -0.7187
22054SOL    HW268157   1.296   6.739   4.154  2.1785 -1.7175  0.5839
22055SOL     OW68158   2.221   3.348   6.332  0.4938 -0.3674 -0.6586
22055SOL    HW168159   2.304   3.395   6.335  0.5539 -0.5224  0.6112
22055SOL    HW268160   2.194   3.340   6.423  0.4680 -2.7946 -0.8151
22056SOL     OW68161   8.565   6.327   0.040  0.1228  0.5454 -0.8770
22056SOL    HW168162   8.573   6.245   0.089  1.1540  1.7533  1.1091
22056SOL    HW268163   8.498   6.309  -0.026  0.6529 -2.0160 -0.8140
22057SOL     OW68164   6.652   8.121   0.184 -0.5844  0.8888 -0.1214
22057SOL    HW168165   6.636   8.095   0.093 -1.6290  0.5803  0.1363
22057SOL    HW268166   6.575   8.090   0.231  0.4836 -0.0289  1.0829
22058SOL     OW68167   6.059   8.695   0.909  0.5960 -0.1464 -0.3392
22058SOL    HW168168   5.990   8.750   0.946 -0.0446 -0.7358 -0.6369
22058SOL    HW268169   6.120   8.757   0.868 -0.1737  0.3330 -0.7794
22059SOL     OW68170   0.125   7.188   4.658 -0.0689 -0.3714  0.4390
22059SOL    HW168171   0.101   7.209   4.748 -1.0731  0.9735 -0.1196
22059SOL    HW268172   0.043   7.194   4.610  0.6799  0.1906 -0.7940
22060SOL     OW68173   8.481   0.497   7.294 -0.3866  0.3334 -1.1750
22060SOL    HW168174   8.411   0.433   7.304 -0.5530  0.6936  0.0177
22060SOL    HW268175   8.439   0.582   7.304  0.3407  0.5284  0.4204
22061SOL     OW68176   3.916   5.876   7.203  0.1198 -0.4128  0.1562
22061SOL    HW168177   3.977   5.835   7.142 -0.5721  0.8795 -1.4639
22061SOL    HW268178   3.879   5.803   7.253  1.6392 -1.3774 -0.0809
22062SOL     OW68179   3.366   6.162   2.741 -0.4438 -0.4377  0.2082
22062SOL    HW168180   3.416   6.219   2.682 -0.1387  0.6185  1.4574
22062SOL    HW268181   3.424   6.087   2.756 -0.0297 -0.1371  0.1281
22063SOL     OW68182   3.934   6.844   3.252  0.9850 -0.6739  0.4447
22063SOL    HW168183   3.988   6.860   3.175  0.9720 -0.1473  0.5444
22063SOL    HW268184   3.966   6.906   3.317 -0.0746  0.0012  0.3416
22064SOL     OW68185   3.321   7.568   5.693 -0.2177 -0.2262 -0.8553
22064SOL    HW168186   3.337   7.488   5.643  1.6223  0.6377 -1.7710
22064SOL    HW268187   3.245   7.609   5.650 -0.2237 -0.7377 -1.3457
22065SOL     OW68188   0.794   6.804   8.771 -0.7694  0.1009 -0.1352
22065SOL    HW168189   0.815   6.737   8.706 -2.1640 -1.1926  0.6609
22065SOL    HW268190   0.716   6.770   8.815  0.9726  0.0799  3.3143
22066SOL     OW68191   7.693   2.435   4.925 -0.1386  0.1882 -0.4571
22066SOL    HW168192   7.776   2.471   4.957 -0.2212  0.2040 -0.2582
22066SOL    HW268193   7.704   2.340   4.931 -0.5168  0.1933  0.5817
22067SOL     OW68194   7.244   8.873   1.242 -0.1786 -0.4677  0.1659
22067SOL    HW168195   7.326   8.866   1.292 -0.9153 -1.9833  1.2268
22067SOL    HW268196   7.180   8.904   1.305 -0.4376  0.8418 -0.6946
22068SOL     OW68197   7.551   3.743   5.256 -0.4732 -0.0593  0.1109
22068SOL    HW168198   7.533   3.651   5.236 -1.5059  0.1025  0.2677
22068SOL    HW268199   7.566   3.744   5.351 -0.5124 -0.0578  0.1171
22069SOL     OW68200   2.722   3.300   0.687  0.1653 -0.6797 -0.4369
22069SOL    HW168201   2.812   3.292   0.717 -0.3468  0.0079  1.4570
22069SOL    HW268202   2.692   3.384   0.721 -0.9394 -0.4775 -1.7981
22070SOL     OW68203   6.189   0.697   8.507  0.1131  0.1466  0.1880
22070SOL    HW168204   6.130   0.769   8.530  0.5959  0.2684  1.0919
22070SOL    HW268205   6.237   0.728   8.431 -0.2550  0.4548  0.0808
22071SOL     OW68206   4.841   0.444   2.851 -0.3889 -0.6848  0.1185
22071SOL    HW168207   4.802   0.525   2.882  0.0983 -0.0463 -0.8756
22071SOL    HW268208   4.838   0.385   2.926  0.3093  0.6244  1.2098
22072SOL     OW68209   4.868   7.325   7.340 -0.6409  0.1269 -0.8636
22072SOL    HW168210   4.899   7.242   7.377 -0.5640  0.6837  0.3906
22072SOL    HW268211   4.790   7.301   7.290  0.7895 -1.0406 -2.6417
22073SOL     OW68212   6.827   2.377   7.768  0.0226 -0.2917 -0.0725
22073SOL    HW168213   6.917   2.353   7.792  0.5529  1.7141  0.1444
22073SOL    HW268214   6.776   2.298   7.785  1.4369 -0.9207  1.6418
22074SOL     OW68215   0.803   3.875   5.664 -0.3899 -0.1599 -0.3355
22074SOL    HW168216   0.784   3.875   5.570 -2.8615 -0.0120  0.0930
22074SOL    HW268217   0.725   3.913   5.704  1.0305  0.7463  1.7356
22075SOL     OW68218   0.151   8.663   8.167  0.4562  0.4640  0.5485
22075SOL    HW168219   0.103   8.716   8.103 -2.0823 -0.6699  1.3832
22075SOL    HW268220   0.233   8.642   8.123 -1.1620 -0.2948 -2.3862
22076SOL     OW68221   2.720   2.369   4.027 -0.2050 -0.2380 -0.1235
22076SOL    HW168222   2.794   2.309   4.037 -1.6431 -1.8655  1.2297
22076SOL    HW268223   2.730   2.405   3.939  0.0317 -3.4604 -1.5541
22077SOL     OW68224   5.139   7.063   3.350 -0.7794 -0.2442 -0.0291
22077SOL    HW168225   5.161   7.035   3.439 -0.3356  0.8304  0.2241
22077SOL    HW268226   5.215   7.115   3.322 -0.8985 -0.6002 -1.0570
22078SOL     OW68227   4.265   5.004   1.032 -0.0540 -0.0830 -0.0494
22078SOL    HW168228   4.174   5.033   1.030 -0.3541 -0.9880  0.0635
22078SOL    HW268229   4.311   5.066   0.976 -0.4009  1.4877  1.3247
22079SOL     OW68230   0.949   2.294   2.525  0.0559  0.1866  0.3222
22079SOL    HW168231   0.941   2.351   2.449  0.1188  0.2728  0.3799
22079SOL    HW268232   0.876   2.319   2.582  0.5238  0.7308  0.6891
22080SOL     OW68233   1.441   2.120   2.488 -0.3405 -0.6750  0.0051
22080SOL    HW168234   1.362   2.172   2.503 -1.0726 -2.3192  2.5319
22080SOL    HW268235   1.410   2.029   2.489  1.6935 -1.5003  3.0491
22081SOL     OW68236   1.028   3.908   0.887  0.5403  0.0564 -0.7298
22081SOL    HW168237   0.962   3.951   0.942  0.2722  0.6284 -1.4739
22081SOL    HW268238   1.022   3.815   0.910 -0.6647  0.0701 -0.9104
22082SOL     OW68239   5.499   3.817   2.430 -0.4640 -0.0603 -1.0254
22082SOL    HW168240   5.468   3.881   2.494  1.6088 -0.3088  0.3255
22082SOL    HW268241   5.561   3.866   2.375 -0.2090 -0.4839 -1.1211
22083SOL     OW68242   4.872   0.074   6.865 -0.2053  0.1527 -0.1841
22083SOL    HW168243   4.851   0.072   6.958  1.3597  1.6384  0.2566
22083SOL    HW268244   4.806   0.132   6.826 -2.1264 -2.0749 -0.4311
22084SOL     OW68245   7.799   2.861   5.351  0.3206 -0.0077  0.4661
22084SOL    HW168246   7.844   2.934   5.394 -0.4037  0.6476  0.1264
22084SOL    HW268247   7.748   2.820   5.420  2.0000 -1.2368  1.0359
22085SOL     OW68248   1.868   7.483   6.005  0.6958  0.8232 -0.1609
22085SOL    HW168249   1.958   7.514   5.990  0.5421  1.3214 -0.0877
22085SOL    HW268250   1.816   7.563   6.003  0.2314  0.5153 -0.3660
22086SOL     OW68251   6.230   5.663   4.708 -0.1486  0.4060  0.6074
22086SOL    HW168252   6.153   5.636   4.757  0.2680  2.1255  2.3172
22086SOL    HW268253   6.207   5.748   4.671  0.5446  0.4427  0.2265
22087SOL     OW68254   0.710   1.541   5.859 -0.2144  0.5092  0.1093
22087SOL    HW168255   0.740   1.632   5.856 -2.7862  1.5433  1.8920
22087SOL    HW268256   0.740   1.508   5.943  0.8986 -0.4388 -0.6236
22088SOL     OW68257   2.446   4.113   8.138 -0.0664  0.2267 -0.6853
22088SOL    HW168258   2.460   4.165   8.217  1.3212 -0.6621 -0.3036
22088SOL    HW268259   2.489   4.162   8.068  2.0223 -0.7588 -0.1677
22089SOL     OW68260   6.614   3.352   0.429  0.1738  0.7611  0.1757
22089SOL    HW168261   6.670   3.296   0.374 -1.6490 -0.7040 -0.3074
22089SOL    HW268262   6.660   3.358   0.513  1.6670  0.7260 -0.6089
22090SOL     OW68263   4.970   0.286   6.643 -0.0499  0.3639  0.1015
22090SOL    HW168264   5.027   0.269   6.717  0.3313  2.1445  0.2591
22090SOL    HW268265   4.881   0.272   6.676  0.2231 -1.8359  0.0129
22091SOL     OW68266   7.245   4.774   7.026  0.3368 -0.6182 -0.1185
22091SOL    HW168267   7.280   4.807   7.108  0.7602  0.9106 -0.8843
22091SOL    HW268268   7.317   4.724   6.987  0.5698 -0.2463 -0.1654
22092SOL     OW68269   3.385   5.763   1.489 -0.4547 -0.4075 -0.1637
22092SOL    HW168270   3.408   5.702   1.420 -0.3677 -0.2821 -0.2472
22092SOL    HW268271   3.416   5.848   1.457 -0.3638 -0.3574  0.0513
22093SOL     OW68272   5.778   7.157   6.024 -0.2232 -0.0101 -0.3626
22093SOL    HW168273   5.832   7.226   6.062 -1.1067  0.9922 -0.8693
22093SOL    HW268274   5.779   7.087   6.089  0.3704  0.6390  0.3429
22094SOL     OW68275   6.006   5.591   4.013 -0.2547  0.1655 -0.4045
22094SOL    HW168276   5.951   5.549   3.946 -0.0171  0.0115 -0.5056
22094SOL    HW268277   6.008   5.683   3.988  0.9733 -0.1116 -1.4242
22095SOL     OW68278   8.121   3.538   6.720 -0.5630 -0.4649 -0.0198
22095SOL    HW168279   8.068   3.540   6.640  0.2658  0.3234 -0.5654
22095SOL    HW268280   8.057   3.526   6.791 -1.4220  0.0399 -0.6956
22096SOL     OW68281   1.487   0.410   3.008  0.0468  0.1984 -0.0971
22096SOL    HW168282   1.526   0.393   2.922  0.0931 -1.7460  0.2610
22096SOL    HW268283   1.445   0.495   2.999  0.7743  0.4210 -1.7799
22097SOL     OW68284   4.081   4.011   4.244  0.3835 -0.5729 -0.7745
22097SOL    HW168285   4.155   4.072   4.248 -0.0101 -0.0864 -0.8452
22097SOL    HW268286   4.111   3.934   4.294  1.1557 -0.6232 -1.2998
22098SOL     OW68287   7.578   0.146   6.332  0.4714 -0.7977 -0.0727
22098SOL    HW168288   7.658   0.101   6.359  0.6481 -0.7457 -0.4948
22098SOL    HW268289   7.600   0.185   6.247  0.1858 -0.2775  0.0886
22099SOL     OW68290   8.001   0.048   4.231  0.2200  0.4924 -0.3781
22099SOL    HW168291   8.032   0.114   4.169 -0.0320 -0.5698 -1.6805
22099SOL    HW268292   7.977  -0.027   4.176 -0.0359 -0.4780  1.0085
22100SOL     OW68293   6.097   8.089   2.910 -0.1613 -0.1418  0.3555
22100SOL    HW168294   6.054   8.007   2.885 -0.6322  0.1423  0.2157
22100SOL    HW268295   6.137   8.070   2.995 -1.2809 -0.1800  0.9026
22101SOL     OW68296   2.580   1.930   6.358 -0.0323  0.0974 -0.0539
22101SOL    HW168297   2.564   1.876   6.281 -0.0525 -0.1227  0.1052
22101SOL    HW268298   2.647   1.884   6.407 -0.5169 -0.1248  0.4146
22102SOL     OW68299   5.186   3.151   6.694  1.2887 -0.3844 -0.3680
22102SOL    HW168300   5.242   3.110   6.760  0.7055 -1.0349 -0.2706
22102SOL    HW268301   5.240   3.222   6.658  2.0717 -0.8198 -0.0819
22103SOL     OW68302   6.203   1.145   7.813 -0.0859 -0.0941  0.1896
22103SOL    HW168303   6.222   1.066   7.865 -1.5551 -0.1034  0.7492
22103SOL    HW268304   6.215   1.117   7.722 -0.9238 -1.0791  0.3566
22104SOL     OW68305   4.503   4.149   7.539 -0.4179  0.8282  0.1425
22104SOL    HW168306   4.533   4.121   7.626 -1.7184 -1.2785 -0.0104
22104SOL    HW268307   4.423   4.198   7.556 -1.0255 -0.1266  0.1505
22105SOL     OW68308   8.417   2.301   7.877 -0.1784 -0.8208 -0.0874
22105SOL    HW168309   8.454   2.338   7.958 -1.1056 -0.8597  0.3705
22105SOL    HW268310   8.449   2.211   7.875  0.9217 -0.4339 -0.4576
22106SOL     OW68311   1.499   4.934   7.643  0.1306  0.2607  0.1343
22106SOL    HW168312   1.415   4.906   7.679 -0.1284 -1.2475 -1.5128
22106SOL    HW268313   1.489   4.925   7.549  1.2511  2.7462 -0.2771
22107SOL     OW68314   6.453   7.386   3.600 -0.2890 -0.1032 -0.2440
22107SOL    HW168315   6.434   7.479   3.610 -1.3614 -0.2982 -0.3285
22107SOL    HW268316   6.448   7.351   3.689  3.0177  0.3742  0.2836
22108SOL     OW68317   0.404   0.736   3.046 -0.2328 -0.7904 -0.2096
22108SOL    HW168318   0.312   0.719   3.023  0.2019 -0.9326 -1.9102
22108SOL    HW268319   0.447   0.651   3.038 -0.3565 -1.3233  3.0687
22109SOL     OW68320   7.919   7.308   2.099  0.2028 -0.9332 -0.0681
22109SOL    HW168321   7.990   7.343   2.045 -0.6510  0.9564 -0.0562
22109SOL    HW268322   7.958   7.298   2.186 -0.1451  2.9611  0.7296
22110SOL     OW68323   0.235   4.535   4.935  0.2202  0.6467  0.4510
22110SOL    HW168324   0.195   4.476   4.998 -1.3507  1.0749 -0.1173
22110SOL    HW268325   0.219   4.495   4.850  1.4817  0.5637  0.2291
22111SOL     OW68326   4.801   6.757   0.174 -0.1161  0.2889 -0.1429
22111SOL    HW168327   4.850   6.718   0.246 -0.5101 -1.4099 -0.7370
22111SOL    HW268328   4.720   6.788   0.214  0.8154  1.9034  0.6013
22112SOL     OW68329   2.903   0.009   2.707  0.3708 -0.8084  0.0094
22112SOL    HW168330   2.812   0.009   2.674  0.2051  2.0195  0.2476
22112SOL    HW268331   2.955   0.033   2.631  0.5991  0.2084  0.4727
22113SOL     OW68332   4.025   6.246   7.094 -0.4467  0.2401  0.2476
22113SOL    HW168333   4.041   6.157   7.061  0.2120 -0.1039  1.3973
22113SOL    HW268334   4.062   6.304   7.028 -1.6347 -0.2944 -0.9254
22114SOL     OW68335   6.999   8.400   2.500  0.1492  0.2437  0.1062
22114SOL    HW168336   7.092   8.417   2.488  0.1490  0.8570  0.8499
22114SOL    HW268337   6.956   8.482   2.474 -0.1005  0.3247  0.7492
22115SOL     OW68338   7.255   4.206   6.087 -0.0691  0.5644 -0.0034
22115SOL    HW168339   7.292   4.120   6.066  0.0887  0.5240  0.4173
22115SOL    HW268340   7.322   4.269   6.058  0.6647  0.4659  1.3826
22116SOL     OW68341   4.092   3.532   8.329  0.4834  0.1721 -0.4115
22116SOL    HW168342   4.001   3.559   8.335  0.5658  0.4815 -0.5311
22116SOL    HW268343   4.101   3.498   8.240 -0.3084 -2.8268  0.5385
22117SOL     OW68344   2.460   2.945   6.905 -0.2280  0.9151 -0.3826
22117SOL    HW168345   2.401   2.981   6.971 -0.8855  2.3208 -1.6916
22117SOL    HW268346   2.548   2.972   6.933 -0.5133  1.6310 -0.1687
22118SOL     OW68347   6.023   2.557   7.536  0.4216  0.5936  0.2633
22118SOL    HW168348   5.928   2.550   7.527  0.5054  0.2804 -0.5115
22118SOL    HW268349   6.039   2.649   7.557 -0.0033  0.8554 -0.5062
22119SOL     OW68350   7.000   5.291   6.672 -0.3118  0.6075 -0.4032
22119SOL    HW168351   7.064   5.251   6.729 -0.9491  0.2603  0.0822
22119SOL    HW268352   7.033   5.275   6.583 -0.0380 -0.0856 -0.1797
22120SOL     OW68353   4.063   2.791   6.183  0.5489  0.2470  0.0273
22120SOL    HW168354   4.027   2.879   6.188 -0.1490 -0.0688  0.8574
22120SOL    HW268355   3.991   2.738   6.150  0.7982 -0.1054  0.0437
22121SOL     OW68356   6.828   8.199   6.924 -0.4854  0.1213  0.3301
22121SOL    HW168357   6.805   8.148   6.846 -0.8893  0.4168  0.2553
22121SOL    HW268358   6.920   8.176   6.940 -0.2636  0.3865 -0.4828
22122SOL     OW68359   4.651   2.545   7.179 -0.7928  0.2109 -1.1158
22122SOL    HW168360   4.594   2.470   7.197  1.5434 -1.2776  0.5418
22122SOL    HW268361   4.686   2.527   7.091  2.2445 -2.5662  0.4286
22123SOL     OW68362   3.428   7.282   0.072  0.1687  0.2714 -0.2999
22123SOL    HW168363   3.515   7.296   0.035  0.4810  0.1782  0.3936
22123SOL    HW268364   3.441   7.218   0.142 -0.2496  1.1701  0.6203
22124SOL     OW68365   3.978   0.393   7.284 -0.0478  0.3198  0.1756
22124SOL    HW168366   4.020   0.341   7.352  2.1752  1.8007  0.0328
22124SOL    HW268367   3.890   0.410   7.318  0.9671  0.9994  2.7171
22125SOL     OW68368   5.159   5.179   5.819  0.3640  0.1396  0.4889
22125SOL    HW168369   5.209   5.120   5.762 -0.3435 -0.3821  0.3874
22125SOL    HW268370   5.222   5.245   5.847  1.8384 -2.0042  2.5606
22126SOL     OW68371   1.955   4.653   3.365 -0.7940 -0.3466  0.6866
22126SOL    HW168372   1.985   4.633   3.277 -1.3471 -0.5531  0.5432
22126SOL    HW268373   1.861   4.633   3.364 -1.5208  2.5851  0.4027
22127SOL     OW68374   8.367   4.821   5.223 -0.3443  0.3673  0.1491
22127SOL    HW168375   8.339   4.738   5.186 -3.6899  1.8743 -1.1404
22127SOL    HW268376   8.323   4.825   5.308 -2.2161  1.7028 -0.8038
22128SOL     OW68377   5.852   2.039   7.486  0.5981  0.0419 -0.5663
22128SOL    HW168378   5.900   1.958   7.507 -0.2498 -0.0399  1.2458
22128SOL    HW268379   5.852   2.089   7.567  1.1616  1.9416 -1.6772
22129SOL     OW68380   5.542   5.302   0.757  0.1404 -0.1775 -0.0403
22129SOL    HW168381   5.536   5.375   0.818  2.5528  0.1088 -0.0823
22129SOL    HW268382   5.514   5.338   0.673  0.8977  0.5999  0.0276
22130SOL     OW68383   4.304   2.858   1.259 -0.0361 -0.1943 -0.0939
22130SOL    HW168384   4.278   2.779   1.305 -0.9994 -1.3435 -2.4242
22130SOL    HW268385   4.371   2.829   1.196  0.2891  1.0311 -0.3526
22131SOL     OW68386   6.342   3.464   4.768 -0.5512 -0.1888  0.4735
22131SOL    HW168387   6.338   3.379   4.812 -0.6066 -0.1881  0.4688
22131SOL    HW268388   6.428   3.464   4.725 -1.5978 -1.3797 -1.8142
22132SOL     OW68389   3.367   0.129   8.835 -0.0070 -0.2123  0.0719
22132SOL    HW168390   3.300   0.061   8.839  0.2846 -0.4342  1.7525
22132SOL    HW268391   3.449   0.081   8.831  0.1059  0.0607 -1.4542
22133SOL     OW68392   1.680   8.294   6.427  0.4440 -0.7546  0.3036
22133SOL    HW168393   1.622   8.231   6.469  0.7778 -0.3569  1.4172
22133SOL    HW268394   1.645   8.305   6.339 -0.0305 -1.9502  0.3284
22134SOL     OW68395   5.609   7.515   2.009 -0.2040 -0.1552 -0.5341
22134SOL    HW168396   5.522   7.477   1.995 -0.9031  0.9684  0.5298
22134SOL    HW268397   5.633   7.551   1.923 -1.2708  0.4294 -0.6122
22135SOL     OW68398   1.516   1.829   8.359 -0.6938  0.1238 -0.4695
22135SOL    HW168399   1.542   1.738   8.343  0.7586  0.4126  0.1419
22135SOL    HW268400   1.535   1.874   8.276  1.4630  0.4571  0.1501
22136SOL     OW68401   4.239   3.647   3.191  0.6419 -0.1479  0.2544
22136SOL    HW168402   4.199   3.722   3.236 -0.3563  0.2616 -1.2451
22136SOL    HW268403   4.164   3.597   3.158  1.3137 -1.5441  0.7669
22137SOL     OW68404   8.615   5.158   0.021 -0.4156 -0.3796  0.1757
22137SOL    HW168405   8.571   5.151   0.107  0.2003 -0.0452  0.5232
22137SOL    HW268406   8.675   5.084   0.019 -0.6388 -0.5509 -0.0872
22138SOL     OW68407   5.183   0.459   6.546  0.4434  0.1962  0.5470
22138SOL    HW168408   5.246   0.474   6.616  0.3437  0.5638  0.5619
22138SOL    HW268409   5.124   0.391   6.579  0.4750  0.2776  0.7682
22139SOL     OW68410   8.385   3.544   7.069  0.2135  0.3676  0.4912
22139SOL    HW168411   8.360   3.528   6.977 -1.4098 -2.1789  1.2501
22139SOL    HW268412   8.479   3.530   7.071  0.6053  2.3447 -1.0775
22140SOL     OW68413   5.669   7.404   6.223  0.4894  0.1007  0.1352
22140SOL    HW168414   5.690   7.343   6.153  1.5088 -1.0593  1.3930
22140SOL    HW268415   5.626   7.477   6.179  1.5741 -0.3260 -1.7541
22141SOL     OW68416   5.525   0.215   7.747 -0.1216  0.3662  0.1518
22141SOL    HW168417   5.596   0.151   7.740 -2.4768 -2.6710  1.4694
22141SOL    HW268418   5.509   0.243   7.657  0.2748 -1.8176 -0.6679
22142SOL     OW68419   5.319   4.275   5.308  0.1332  0.2034 -0.0866
22142SOL    HW168420   5.353   4.217   5.375 -1.6975 -1.8243 -0.7903
22142SOL    HW268421   5.358   4.245   5.227 -1.2952 -0.5311 -0.5451
22143SOL     OW68422   5.043   1.845   3.508 -0.1673 -0.2419  0.5333
22143SOL    HW168423   5.088   1.772   3.551  0.2595  1.1973  2.7385
22143SOL    HW268424   5.057   1.831   3.415  1.3924 -2.0115  0.9738
22144SOL     OW68425   7.279   8.219   5.422  0.2387  0.4785  0.0129
22144SOL    HW168426   7.281   8.306   5.382  1.5672  0.5274  0.1387
22144SOL    HW268427   7.266   8.235   5.515 -1.3110  0.4389 -0.1790
22145SOL     OW68428   1.916   1.586   0.855 -0.2930 -0.0327  0.3845
22145SOL    HW168429   1.833   1.585   0.904 -0.2086  1.1014  0.5710
22145SOL    HW268430   1.912   1.507   0.801 -0.6466 -1.0159  1.7799
22146SOL     OW68431   4.625   4.609   4.849 -0.5287 -0.6418 -0.1507
22146SOL    HW168432   4.646   4.624   4.756  1.0662 -0.1374  0.2689
22146SOL    HW268433   4.642   4.517   4.863 -2.5059 -1.1573 -0.7536
22147SOL     OW68434   8.516   3.433   1.467 -0.0698  0.6451 -0.2928
22147SOL    HW168435   8.481   3.396   1.548  0.4483 -0.5864 -0.6124
22147SOL    HW268436   8.452   3.408   1.400  0.1502  0.5427 -0.4662
22148SOL     OW68437   5.426   1.623   5.995 -0.3621 -0.0821 -0.0527
22148SOL    HW168438   5.389   1.587   6.076 -0.2849 -1.2400 -0.5147
22148SOL    HW268439   5.447   1.713   6.017 -3.2621  0.6137  0.3108
22149SOL     OW68440   7.864   7.655   7.188 -0.0332 -0.4975 -0.1512
22149SOL    HW168441   7.836   7.671   7.278  2.6887 -0.3834  0.7740
22149SOL    HW268442   7.940   7.713   7.176  2.6180 -3.8109 -0.8671
22150SOL     OW68443   4.361   6.781   5.655  0.1719 -0.2858 -0.6336
22150SOL    HW168444   4.338   6.857   5.602  1.5908  0.1456 -0.6880
22150SOL    HW268445   4.337   6.805   5.744 -1.5052 -0.7078 -0.9428
22151SOL     OW68446   4.458   6.280   5.011 -0.1824 -0.0800  0.5709
22151SOL    HW168447   4.406   6.352   4.976  0.8954  0.9765  1.0684
22151SOL    HW268448   4.478   6.225   4.936 -0.1610  0.6961 -0.0007
22152SOL     OW68449   4.452   5.218   5.745  0.2552  0.0393 -0.0582
22152SOL    HW168450   4.500   5.213   5.663 -0.2733  1.4833 -0.4797
22152SOL    HW268451   4.359   5.214   5.720  0.0854 -2.3169  0.7116
22153SOL     OW68452   3.688   0.881   7.827 -0.2163  0.2184  0.7977
22153SOL    HW168453   3.763   0.906   7.883  0.6283 -0.0278 -0.1979
22153SOL    HW268454   3.685   0.950   7.761  0.7843 -1.1178 -0.7031
22154SOL     OW68455   6.146   1.588   4.818  0.3211  0.8001  0.0065
22154SOL    HW168456   6.070   1.543   4.780  0.5444  1.3019 -1.0875
22154SOL    HW268457   6.166   1.538   4.897 -2.5245  1.9778  1.6179
22155SOL     OW68458   4.623   1.197   4.946 -0.0881  0.1671 -0.5158
22155SOL    HW168459   4.685   1.234   4.883  0.4775  0.7261  0.3390
22155SOL    HW268460   4.537   1.230   4.918  0.4358  2.6247  0.4942
22156SOL     OW68461   6.716   0.157   7.332 -0.3618 -0.1860  0.0864
22156SOL    HW168462   6.812   0.159   7.333 -0.2751 -2.0724 -0.0940
22156SOL    HW268463   6.694   0.144   7.240 -0.8068  0.2855  0.1227
22157SOL     OW68464   7.271   8.357   2.836 -0.6993 -0.2859 -0.2267
22157SOL    HW168465   7.185   8.399   2.824 -1.4641 -1.9286 -0.8908
22157SOL    HW268466   7.250   8.268   2.862  0.8455 -0.5152  0.2897
22158SOL     OW68467   5.092   4.494   3.689 -0.1345 -0.2030  0.0692
22158SOL    HW168468   5.109   4.534   3.604  1.9264  0.2312  0.6291
22158SOL    HW268469   5.029   4.553   3.731 -1.3739 -0.5604 -1.2022
22159SOL     OW68470   2.814   2.883   6.062  0.3446  0.2972 -0.2331
22159SOL    HW168471   2.896   2.887   6.113  0.1686 -2.0242  0.3495
22159SOL    HW268472   2.745   2.899   6.127  0.2357 -0.3829 -0.1697
22160SOL     OW68473   5.353   0.440   3.519  0.1578 -0.0895 -0.6058
22160SOL    HW168474   5.316   0.524   3.491  0.9939  0.0751 -1.2564
22160SOL    HW268475   5.354   0.387   3.440 -1.6962 -1.2478  0.0828
22161SOL     OW68476   8.302   5.948   5.908 -0.0297 -0.1599 -0.2186
22161SOL    HW168477   8.393   5.958   5.935  0.1882  0.3132 -1.0788
22161SOL    HW268478   8.268   6.037   5.905 -0.8335 -0.3979  1.0685
22162SOL     OW68479   4.221   8.753   1.606  0.0187 -0.4934 -0.5358
22162SOL    HW168480   4.294   8.790   1.557  0.5587 -1.0201 -0.1406
22162SOL    HW268481   4.227   8.794   1.693  0.1972 -0.9683 -0.3186
22163SOL     OW68482   1.555   2.635   1.080 -0.0690 -0.3174 -0.4612
22163SOL    HW168483   1.497   2.559   1.071  0.7597 -0.9430 -0.5742
22163SOL    HW268484   1.596   2.624   1.166 -1.4346  1.0779  0.4399
22164SOL     OW68485   1.499   8.827   2.281 -0.0445  0.0615  0.0073
22164SOL    HW168486   1.419   8.830   2.230 -1.2776 -1.1839  1.7165
22164SOL    HW268487   1.537   8.914   2.274 -0.5335  0.1401 -2.3361
22165SOL     OW68488   2.889   1.710   0.683 -0.1948 -0.2308 -0.3150
22165SOL    HW168489   2.833   1.633   0.692 -1.5611  0.5780 -1.4465
22165SOL    HW268490   2.842   1.780   0.728  0.2249  0.3237 -0.7156
22166SOL     OW68491   3.929   0.150   2.829 -0.0625 -0.2294  0.4579
22166SOL    HW168492   3.845   0.108   2.847 -0.6981  0.9844  0.4442
22166SOL    HW268493   3.972   0.092   2.766 -1.9330  0.2880 -1.4168
22167SOL     OW68494   3.738   4.020   3.013  0.1225 -0.3020  0.2731
22167SOL    HW168495   3.758   4.040   2.922  1.4013  2.0449  0.9693
22167SOL    HW268496   3.643   4.026   3.019 -0.0382 -1.2507 -1.0329
22168SOL     OW68497   0.830   0.983   8.710 -0.3158  0.2324 -0.2571
22168SOL    HW168498   0.825   1.015   8.800 -1.4809 -0.2244 -0.1284
22168SOL    HW268499   0.753   0.925   8.702  0.8622 -1.3071 -0.9214
22169SOL     OW68500   5.323   8.512   8.760 -0.3173  0.0156 -0.5577
22169SOL    HW168501   5.328   8.418   8.771 -0.9667 -0.1530 -1.5294
22169SOL    HW268502   5.325   8.548   8.849 -1.7712 -1.0055 -0.0817
22170SOL     OW68503   5.636   2.482   6.482  0.8145  0.5640 -0.2110
22170SOL    HW168504   5.644   2.507   6.574 -1.6069 -0.2673  0.2948
22170SOL    HW268505   5.552   2.517   6.455  0.4532 -1.1353 -1.4398
22171SOL     OW68506   1.283   6.687   3.779 -0.3536  0.4736  0.1867
22171SOL    HW168507   1.249   6.598   3.786 -0.5739  0.5279 -0.2006
22171SOL    HW268508   1.293   6.716   3.870 -3.5323  1.3084  0.3734
22172SOL     OW68509   3.536   7.341   4.379 -0.4249 -0.0898  0.6074
22172SOL    HW168510   3.575   7.364   4.295  0.6096  3.4813  1.9006
22172SOL    HW268511   3.606   7.299   4.428 -0.0631  0.6629  0.7464
22173SOL     OW68512   3.365   8.338   7.611 -0.4349  0.6565 -0.0268
22173SOL    HW168513   3.424   8.303   7.679  1.0520 -0.6048 -1.8517
22173SOL    HW268514   3.284   8.357   7.658 -0.0090 -1.5923  1.8681
22174SOL     OW68515   1.627   8.363   0.035 -0.0892  0.1839 -0.2129
22174SOL    HW168516   1.649   8.435   0.096  1.0886 -2.2025  2.4174
22174SOL    HW268517   1.553   8.319   0.077  0.6653 -1.4522 -0.5382
22175SOL     OW68518   8.393   2.658   3.570 -0.5179 -0.0901 -0.2653
22175SOL    HW168519   8.442   2.717   3.513 -0.5440 -1.2493 -1.5421
22175SOL    HW268520   8.353   2.595   3.510 -2.2463 -0.1481  0.8837
22176SOL     OW68521   2.363   4.482   4.740  0.2884  0.0629 -0.3088
22176SOL    HW168522   2.326   4.422   4.804  1.7013 -1.6365 -1.0040
22176SOL    HW268523   2.436   4.434   4.701  2.4709  2.7530  0.1322
22177SOL     OW68524   8.435   1.967   7.692  0.0391  0.1937  0.0282
22177SOL    HW168525   8.346   1.934   7.699 -0.1412  0.7188  0.3100
22177SOL    HW268526   8.428   2.043   7.634  0.1432  0.7621  0.7409
22178SOL     OW68527   1.202   5.651   4.827  0.6106 -0.2088 -0.0636
22178SOL    HW168528   1.173   5.736   4.861 -2.0804 -1.9856  2.5513
22178SOL    HW268529   1.195   5.660   4.732  0.5366  2.5312  0.1296
22179SOL     OW68530   1.037   3.823   5.301 -0.0160  0.2987 -0.1284
22179SOL    HW168531   1.113   3.767   5.311 -0.3758 -0.0889  0.5136
22179SOL    HW268532   0.962   3.766   5.319 -0.4419  0.7474 -0.4364
22180SOL     OW68533   2.527   2.082   4.121  0.1768 -0.5498 -0.6975
22180SOL    HW168534   2.556   2.071   4.212 -0.3442 -0.1393 -0.4799
22180SOL    HW268535   2.580   2.019   4.072  0.5981 -0.6405 -0.1383
22181SOL     OW68536   5.160   5.372   1.834  0.2358 -0.1838  0.6270
22181SOL    HW168537   5.187   5.366   1.742  0.3546 -1.4438  0.7261
22181SOL    HW268538   5.078   5.324   1.838  1.4133 -2.2401  1.5985
22182SOL     OW68539   7.819   6.609   3.857  0.0828 -0.0719  0.2699
22182SOL    HW168540   7.730   6.587   3.829 -0.3481  0.3839  1.2192
22182SOL    HW268541   7.813   6.613   3.953  1.2895 -0.7310  0.3855
22183SOL     OW68542   4.373   0.058   6.042 -0.1452 -0.1814  0.1152
22183SOL    HW168543   4.460   0.029   6.071  0.0657  1.3453  1.1570
22183SOL    HW268544   4.357   0.008   5.962  0.5805 -2.3846  1.2308
22184SOL     OW68545   7.051   5.341   6.408  0.2444  0.1009  0.2244
22184SOL    HW168546   7.104   5.303   6.339 -1.3136 -1.5581 -0.1541
22184SOL    HW268547   7.015   5.421   6.370 -0.8799 -0.9707 -1.0711
22185SOL     OW68548   7.353   2.898   0.490  0.3995 -0.0868 -0.5320
22185SOL    HW168549   7.411   2.922   0.563  1.5210  0.1565 -1.4762
22185SOL    HW268550   7.394   2.821   0.452  0.4036  0.3865 -1.5259
22186SOL     OW68551   8.247   2.325   2.857  0.2742  0.1730 -0.4297
22186SOL    HW168552   8.169   2.374   2.829  1.8239  2.0893 -1.6017
22186SOL    HW268553   8.273   2.367   2.939  0.2395 -0.2818 -0.1842
22187SOL     OW68554   4.366   4.115   2.008 -0.3969  0.0712 -0.2745
22187SOL    HW168555   4.450   4.099   1.965 -0.8280 -0.9865 -0.7624
22187SOL    HW268556   4.343   4.205   1.983  0.1210  0.0298 -0.9446
22188SOL     OW68557   6.193   0.504   1.464 -0.6087  0.4106 -0.4512
22188SOL    HW168558   6.122   0.485   1.525  1.1713 -1.4026  1.1826
22188SOL    HW268559   6.233   0.585   1.498  0.0684 -0.3251  0.5802
22189SOL     OW68560   3.892   0.537   4.985 -0.1304 -1.0329  0.5384
22189SOL    HW168561   3.980   0.574   4.972 -0.8104  1.2456  1.8182
22189SOL    HW268562   3.859   0.523   4.896  1.4283 -1.7284  0.0365
22190SOL     OW68563   6.926   7.169   0.067  0.0576  0.0451  0.5763
22190SOL    HW168564   6.881   7.088   0.044  1.0933 -0.4405  0.1833
22190SOL    HW268565   6.972   7.195  -0.013  1.1618  0.0450  1.1803
22191SOL     OW68566   4.170   1.166   4.609  0.4858 -0.1760  0.3072
22191SOL    HW168567   4.168   1.254   4.571 -0.2497  0.3032  1.3947
22191SOL    HW268568   4.103   1.117   4.560  0.1055  0.2004  0.4460
22192SOL     OW68569   4.916   1.237   1.151  0.1545 -0.2297  0.0923
22192SOL    HW168570   4.942   1.319   1.109  0.2096 -0.2674  0.0526
22192SOL    HW268571   4.998   1.189   1.162  0.0466 -0.5533 -0.4712
22193SOL     OW68572   0.893   6.913   0.981  0.0489 -0.0594 -0.2435
22193SOL    HW168573   0.856   6.860   1.051 -0.0221  0.6277  0.2466
22193SOL    HW268574   0.880   6.861   0.902 -1.3440 -0.1325  0.0080
22194SOL     OW68575   7.024   6.151   7.032  0.1817 -0.3359 -0.4852
22194SOL    HW168576   7.054   6.069   7.072  0.4734 -0.7973 -1.6086
22194SOL    HW268577   6.985   6.124   6.949 -1.5549  0.4696  0.0283
22195SOL     OW68578   3.345   1.514   1.134 -0.2331 -0.1677  0.4361
22195SOL    HW168579   3.309   1.517   1.046 -0.9261  1.2895  0.7308
22195SOL    HW268580   3.405   1.439   1.134 -3.1616 -2.6790 -0.0907
22196SOL     OW68581   5.240   7.382   2.921  0.2933 -0.5455 -0.4364
22196SOL    HW168582   5.258   7.289   2.905 -0.4380 -0.3339 -2.8880
22196SOL    HW268583   5.310   7.428   2.874  0.2242  0.1802  0.1398
22197SOL     OW68584   5.171   3.291   4.388  0.2921  0.2617 -0.2525
22197SOL    HW168585   5.183   3.347   4.312 -0.3070  0.6261 -0.0881
22197SOL    HW268586   5.088   3.246   4.372  1.0973 -1.1295 -0.7107
22198SOL     OW68587   5.848   8.671   0.652 -0.4113 -0.0722 -0.5768
22198SOL    HW168588   5.902   8.641   0.725  0.9411 -0.5631 -1.7315
22198SOL    HW268589   5.765   8.626   0.663  0.5661 -1.9907 -0.6128
22199SOL     OW68590   4.240   1.273   3.411 -0.4025  0.7975  0.6068
22199SOL    HW168591   4.176   1.229   3.355  0.9227 -1.0062  0.3891
22199SOL    HW268592   4.323   1.232   3.388  0.6295  2.1256  1.8063
22200SOL     OW68593   6.138   7.907   4.532 -0.0025  0.4548  0.3730
22200SOL    HW168594   6.127   8.002   4.538  0.9334  0.5810  0.2386
22200SOL    HW268595   6.220   7.890   4.578  0.5604 -0.1157 -0.8142
22201SOL     OW68596   2.392   8.245   5.701  0.7365  0.1822 -0.0252
22201SOL    HW168597   2.379   8.339   5.709  1.6824  0.3542 -0.4219
22201SOL    HW268598   2.478   8.229   5.741  0.3146 -0.6028  0.6060
22202SOL     OW68599   0.506   6.854   6.526 -0.2936 -0.4660  0.2577
22202SOL    HW168600   0.452   6.799   6.469 -0.4057  0.2688 -0.3685
22202SOL    HW268601   0.502   6.811   6.612 -2.4931 -0.0357  0.4293
22203SOL     OW68602   6.543   3.063   8.834  0.4624 -0.2580 -0.0228
22203SOL    HW168603   6.571   2.973   8.849  0.4544 -0.4935 -1.3386
22203SOL    HW268604   6.460   3.054   8.786  0.0802  0.4496  0.4920
22204SOL     OW68605   4.742   6.117   3.366 -0.1372  0.0751 -0.2913
22204SOL    HW168606   4.732   6.124   3.271 -0.8426 -0.3425 -0.2554
22204SOL    HW268607   4.717   6.204   3.399  1.7985  0.7941 -0.5889
22205SOL     OW68608   1.861   6.121   2.806  0.1720 -0.4456 -0.2625
22205SOL    HW168609   1.884   6.070   2.728 -1.2047 -1.3735 -0.0973
22205SOL    HW268610   1.801   6.189   2.774 -0.1715 -0.6523 -0.0687
22206SOL     OW68611   8.618   8.083   8.783  0.1857 -0.4735 -0.0208
22206SOL    HW168612   8.704   8.062   8.747 -0.4739 -0.8911 -1.3958
22206SOL    HW268613   8.573   7.999   8.791 -0.2786 -0.2121  0.1853
22207SOL     OW68614   6.910   2.811   2.112 -0.2576  0.4205 -0.2939
22207SOL    HW168615   6.839   2.763   2.155 -1.1651 -0.4064 -2.5619
22207SOL    HW268616   6.964   2.843   2.184 -3.3355  1.8188  1.6117
22208SOL     OW68617   7.493   3.445   7.669  0.1422  0.1509  0.0049
22208SOL    HW168618   7.433   3.378   7.638 -1.1877  1.7633 -1.1435
22208SOL    HW268619   7.576   3.425   7.625 -0.1895 -0.7887 -0.2154
22209SOL     OW68620   3.205   2.844   8.196 -0.3582 -0.3159 -0.3402
22209SOL    HW168621   3.115   2.849   8.163 -0.3009 -0.6102 -0.5493
22209SOL    HW268622   3.255   2.902   8.139 -0.8209  1.7631  1.2541
22210SOL     OW68623   6.670   2.098   1.018  0.1608 -0.1469  0.1882
22210SOL    HW168624   6.743   2.122   0.961 -1.6950 -0.1711 -2.3271
22210SOL    HW268625   6.674   2.003   1.023  0.1717 -0.1604 -0.0971
22211SOL     OW68626   5.464   1.960   5.547 -0.1765  0.1761 -0.5309
22211SOL    HW168627   5.547   2.001   5.573  0.5871 -0.0493 -2.4338
22211SOL    HW268628   5.488   1.869   5.529 -0.8949  0.0438 -0.8400
22212SOL     OW68629   7.405   8.598   0.247 -0.4395 -0.4701 -0.0207
22212SOL    HW168630   7.454   8.678   0.267 -1.4123  0.0030  0.5423
22212SOL    HW268631   7.365   8.615   0.162 -2.0351  0.3728  0.8379
22213SOL     OW68632   3.940   4.033   4.912  0.4221 -0.0699 -0.2733
22213SOL    HW168633   4.010   4.032   4.847  0.8469 -0.6053  0.1820
22213SOL    HW268634   3.875   3.971   4.879  0.1762  0.3950 -0.6738
22214SOL     OW68635   3.753   3.307   0.828 -0.4059  0.4015 -0.4092
22214SOL    HW168636   3.736   3.217   0.802  1.4160  0.3260 -1.4786
22214SOL    HW268637   3.846   3.309   0.852  0.1233  2.3695 -2.2904
22215SOL     OW68638   3.025   7.852   1.742 -0.4689 -0.3948  0.2977
22215SOL    HW168639   3.074   7.886   1.667  1.1198 -1.5784  0.7348
22215SOL    HW268640   2.945   7.905   1.745  1.4944  2.7784  0.5479
22216SOL     OW68641   0.299   1.493   0.908  0.0188 -0.0325  0.0296
22216SOL    HW168642   0.371   1.536   0.861  0.1568 -0.3063 -0.0127
22216SOL    HW268643   0.270   1.424   0.848  0.4318 -0.6164  0.4897
22217SOL     OW68644   5.739   6.296   5.267 -0.1434  0.9240 -0.7348
22217SOL    HW168645   5.772   6.222   5.318  2.1616  2.7311  0.6137
22217SOL    HW268646   5.805   6.364   5.279 -2.0495  3.1464 -2.0741
22218SOL     OW68647   6.333   2.223   8.287 -0.5354 -0.2959 -0.2283
22218SOL    HW168648   6.241   2.200   8.293 -0.5949  0.1702  0.8590
22218SOL    HW268649   6.379   2.143   8.312 -0.6754 -0.1511  0.5002
22219SOL     OW68650   0.694   7.147   5.802 -0.3524  0.0191  0.1192
22219SOL    HW168651   0.599   7.160   5.806 -0.5170  0.1197 -2.5103
22219SOL    HW268652   0.713   7.136   5.709  2.4082  1.4510  0.3986
22220SOL     OW68653   6.649   8.582   4.698  0.4129  0.2481  0.2813
22220SOL    HW168654   6.560   8.598   4.666  0.4903  0.6793  0.2793
22220SOL    HW268655   6.671   8.495   4.665 -0.2873 -0.1804  0.8872
22221SOL     OW68656   7.703   6.888   3.171  0.3804  0.1980 -0.3598
22221SOL    HW168657   7.739   6.957   3.115  0.0529  0.6002 -0.0837
22221SOL    HW268658   7.695   6.929   3.257 -1.0745  0.2452 -0.4927
22222SOL     OW68659   2.204   0.272   0.893  0.5279  0.1572 -0.1562
22222SOL    HW168660   2.287   0.280   0.941  1.4268  1.5731 -1.8209
22222SOL    HW268661   2.207   0.183   0.856  1.4829  0.3071 -0.4683
22223SOL     OW68662   1.889   6.864   8.755  0.9635 -0.2535  0.2751
22223SOL    HW168663   1.834   6.839   8.829  0.5131  0.8047  0.3065
22223SOL    HW268664   1.854   6.948   8.726  0.4819 -1.1186 -1.7979
22224SOL     OW68665   3.924   1.300   3.860  0.4685  0.0454  0.6584
22224SOL    HW168666   3.939   1.293   3.955  2.2061  1.4724  0.5422
22224SOL    HW268667   3.932   1.393   3.841 -0.4411 -0.1456 -0.8365
22225SOL     OW68668   1.536   1.237   5.543 -0.0824  0.6787 -0.0210
22225SOL    HW168669   1.578   1.272   5.464 -0.8413 -1.3616 -1.4203
22225SOL    HW268670   1.606   1.192   5.590  0.5666  2.6352  1.0088
22226SOL     OW68671   6.233   7.140   5.423  0.1741  0.1442 -0.1449
22226SOL    HW168672   6.159   7.092   5.462 -1.6416  2.3898 -0.5849
22226SOL    HW268673   6.292   7.157   5.496 -1.5396  1.3802  1.0453
22227SOL     OW68674   2.012   6.929   6.426 -0.3017 -0.3803 -0.6714
22227SOL    HW168675   2.044   6.900   6.512  0.2450  1.1656 -0.3218
22227SOL    HW268676   1.916   6.928   6.435 -0.2629 -0.8888 -0.2748
22228SOL     OW68677   7.750   1.987   3.253  0.2213  0.0347 -0.0972
22228SOL    HW168678   7.834   2.032   3.253  0.4448 -0.3649 -0.8393
22228SOL    HW268679   7.763   1.912   3.194 -0.8600  0.3582 -0.7744
22229SOL     OW68680   1.469   7.127   6.871  0.6858 -0.0738  1.1854
22229SOL    HW168681   1.456   7.131   6.966 -2.4116  1.4390  0.8190
22229SOL    HW268682   1.436   7.211   6.839  0.2700 -1.1120 -1.3651
22230SOL     OW68683   4.574   8.066   8.170 -0.1933  0.4514  0.1949
22230SOL    HW168684   4.623   8.095   8.093  1.8984 -1.7508  0.5900
22230SOL    HW268685   4.503   8.130   8.178  0.8832  2.0992 -2.1537
22231SOL     OW68686   8.523   7.571   0.676  0.3452  0.4781 -0.5209
22231SOL    HW168687   8.577   7.513   0.622  0.4947  0.2856 -0.1640
22231SOL    HW268688   8.451   7.597   0.618 -0.1814 -0.7150 -0.4268
22232SOL     OW68689   0.090   6.934   5.000  0.0305 -0.1722  0.1664
22232SOL    HW168690   0.015   6.885   4.969  0.6031 -0.9071 -0.0770
22232SOL    HW268691   0.159   6.917   4.936 -0.1836  2.2012 -0.8007
22233SOL     OW68692   1.461   7.471   6.977 -0.6630  0.4063 -0.0904
22233SOL    HW168693   1.449   7.395   7.035  0.4804  0.6289  0.4696
22233SOL    HW268694   1.470   7.433   6.890  0.3171 -0.1513  0.2357
22234SOL     OW68695   0.330   0.522   2.588 -0.2372  0.4141  0.4484
22234SOL    HW168696   0.366   0.441   2.624 -0.7503  0.9553  2.2688
22234SOL    HW268697   0.251   0.539   2.639 -0.7969  1.4574 -0.6928
22235SOL     OW68698   1.521   3.684   6.580 -0.4246  0.4796  0.0711
22235SOL    HW168699   1.507   3.696   6.674  0.0446  0.2512  0.1755
22235SOL    HW268700   1.520   3.589   6.567  1.1166  0.4364  0.1185
22236SOL     OW68701   5.565   1.810   2.582  0.8805  0.1701 -0.1270
22236SOL    HW168702   5.560   1.904   2.561  0.4758  0.6749  1.9990
22236SOL    HW268703   5.585   1.808   2.676 -1.6609 -1.8281  0.4587
22237SOL     OW68704   5.603   2.915   1.486  0.3865  0.2789 -0.1528
22237SOL    HW168705   5.618   2.918   1.391  1.1617 -0.4727 -0.0626
22237SOL    HW268706   5.682   2.875   1.522 -1.2280 -2.5470  0.4840
22238SOL     OW68707   0.776   2.424   4.838  0.0509 -0.5246  0.0128
22238SOL    HW168708   0.870   2.403   4.840  0.3831  0.6739 -1.2397
22238SOL    HW268709   0.748   2.399   4.750 -0.5220  0.2701 -0.0358
22239SOL     OW68710   7.509   8.868   7.751  0.1886 -0.5850 -0.1078
22239SOL    HW168711   7.432   8.904   7.706 -0.1745 -0.7542  0.3758
22239SOL    HW268712   7.497   8.773   7.748 -0.2579 -0.5810  1.0628
22240SOL     OW68713   5.114   4.035   6.039  0.0134 -0.4307 -0.0204
22240SOL    HW168714   5.175   4.107   6.024  0.4255 -0.6185  0.7310
22240SOL    HW268715   5.042   4.074   6.087  0.8706 -0.7720  1.6133
22241SOL     OW68716   3.643   4.082   2.574 -0.0768 -0.3472 -0.1662
22241SOL    HW168717   3.584   4.016   2.609 -0.7205  0.0026 -0.5824
22241SOL    HW268718   3.670   4.046   2.489  0.4843 -0.6050  0.1154
22242SOL     OW68719   5.376   5.469   2.359 -0.2028 -0.2488 -0.3961
22242SOL    HW168720   5.404   5.516   2.280  0.3228  0.6789  0.3361
22242SOL    HW268721   5.456   5.455   2.409 -0.6648  0.0736  0.4589
22243SOL     OW68722   2.979   4.173   3.417  0.7595  0.3644  0.7899
22243SOL    HW168723   3.014   4.257   3.388  1.3293  0.3005  1.2833
22243SOL    HW268724   2.887   4.175   3.390  0.5582  1.4835  1.5126
22244SOL     OW68725   2.583   3.883   0.145 -0.2923 -0.2892  0.5522
22244SOL    HW168726   2.653   3.901   0.082 -0.4561 -0.6221  0.2670
22244SOL    HW268727   2.567   3.789   0.136  2.1602 -1.1708  3.6388
22245SOL     OW68728   5.361   5.278   7.478  0.0209  0.2479 -0.0467
22245SOL    HW168729   5.399   5.275   7.390  1.8448 -0.9187  0.7217
22245SOL    HW268730   5.305   5.202   7.483 -0.3874  0.5279 -0.3175
22246SOL     OW68731   0.464   5.547   3.508 -0.1850  0.6484  0.0214
22246SOL    HW168732   0.420   5.625   3.543 -1.6664 -1.0130  2.1739
22246SOL    HW268733   0.537   5.532   3.569 -1.8651 -1.3964  1.7041
22247SOL     OW68734   4.032   0.016   7.773 -0.2576 -0.0895 -0.2730
22247SOL    HW168735   3.938   0.005   7.791 -0.1505 -1.3629 -0.4411
22247SOL    HW268736   4.038   0.021   7.678 -0.1705  0.2455 -0.2524
22248SOL     OW68737   3.440   2.495   8.632  0.0479 -0.2604  0.4463
22248SOL    HW168738   3.348   2.481   8.610  0.5235 -0.0525 -2.0687
22248SOL    HW268739   3.446   2.475   8.725 -2.1693 -2.1195  0.2870
22249SOL     OW68740   7.044   7.542   0.863 -0.3979  0.3261  0.2336
22249SOL    HW168741   7.090   7.511   0.941 -0.0936 -0.9732 -0.4352
22249SOL    HW268742   7.024   7.463   0.814 -1.7331  1.0224 -0.3945
22250SOL     OW68743   0.223   2.114   6.937  0.5984 -0.8906  0.1304
22250SOL    HW168744   0.197   2.188   6.882  1.9548 -2.0987 -2.3237
22250SOL    HW268745   0.157   2.047   6.919 -0.1494 -0.6185  1.6945
22251SOL     OW68746   0.476   0.255   2.258 -0.0691  0.1615  0.0045
22251SOL    HW168747   0.506   0.342   2.283 -0.7385  0.7496 -1.1715
22251SOL    HW268748   0.392   0.244   2.303 -0.7636  0.7965 -1.0843
22252SOL     OW68749   8.017   0.621   0.065 -0.0214  0.2422 -0.5026
22252SOL    HW168750   7.935   0.643   0.021  0.4736  1.4476 -0.8735
22252SOL    HW268751   8.083   0.625  -0.005  0.5147  0.4251  0.0123
22253SOL     OW68752   4.403   7.559   1.886 -0.0569 -0.2410  0.1107
22253SOL    HW168753   4.486   7.572   1.840 -0.3323  0.1539 -0.2893
22253SOL    HW268754   4.351   7.635   1.863 -0.6982 -0.7063 -0.0152
22254SOL     OW68755   7.942   8.389   3.219 -0.3370 -0.3473 -0.1644
22254SOL    HW168756   7.893   8.361   3.142 -0.7295 -0.0584 -0.0219
22254SOL    HW268757   7.884   8.451   3.263  1.1423  2.0922 -1.3968
22255SOL     OW68758   8.816   2.735   2.094 -0.1395  0.2784  0.8678
22255SOL    HW168759   8.908   2.735   2.121  0.2655 -0.4896 -0.3660
22255SOL    HW268760   8.796   2.642   2.078 -0.1301  0.6555 -1.8960
22256SOL     OW68761   8.627   7.079   4.361 -0.5320  0.4389  0.1071
22256SOL    HW168762   8.544   7.056   4.402 -0.6235 -2.2859 -1.3633
22256SOL    HW268763   8.602   7.115   4.275 -0.2190  0.2193 -0.0807
22257SOL     OW68764   0.060   8.731   1.977  0.0631 -0.4151  0.2336
22257SOL    HW168765   0.082   8.675   1.903 -0.5297  0.6779 -0.7897
22257SOL    HW268766   0.009   8.674   2.035  0.5890 -1.2958 -0.1467
22258SOL     OW68767   5.984   7.354   7.389 -0.0713 -0.0231 -0.2991
22258SOL    HW168768   6.056   7.301   7.355 -0.6209 -1.1469  0.2316
22258SOL    HW268769   5.977   7.329   7.481 -0.4291  0.8933 -0.0684
22259SOL     OW68770   0.772   8.435   7.012  0.5762  0.7708  0.7565
22259SOL    HW168771   0.780   8.359   7.071 -0.0171  0.5852  0.6078
22259SOL    HW268772   0.862   8.452   6.983  0.5135 -1.0921 -0.7231
22260SOL     OW68773   1.959   4.002   3.828  0.2181  0.5171 -0.6536
22260SOL    HW168774   2.049   3.979   3.852 -0.1905 -0.5053 -0.0072
22260SOL    HW268775   1.919   3.918   3.803 -0.5610  0.9479 -0.8869
22261SOL     OW68776   7.768   3.818   4.626 -0.0895 -0.0143  0.9274
22261SOL    HW168777   7.842   3.758   4.620  1.0996  1.4536  0.1698
22261SOL    HW268778   7.739   3.812   4.717  1.1951 -0.3787  1.3312
22262SOL     OW68779   8.455   6.987   7.788  0.6358 -0.5541  0.6620
22262SOL    HW168780   8.373   6.942   7.768  0.4575 -0.0998  0.3459
22262SOL    HW268781   8.502   6.988   7.704  0.2159  0.6966  0.4183
22263SOL     OW68782   5.854   1.424   5.401 -0.6398 -0.3797 -0.0605
22263SOL    HW168783   5.855   1.473   5.484  0.5917 -0.1934 -0.1777
22263SOL    HW268784   5.943   1.392   5.391 -0.8912 -0.7775 -1.1043
22264SOL     OW68785   7.934   5.489   8.316 -0.2955 -0.0113 -0.0607
22264SOL    HW168786   7.897   5.465   8.231 -2.2265 -0.8274  0.9410
22264SOL    HW268787   7.858   5.490   8.375  0.8129  1.6045  1.4454
22265SOL     OW68788   1.841   0.988   5.272 -0.0263 -0.0448 -0.3952
22265SOL    HW168789   1.914   1.027   5.320 -0.3551 -1.1219  1.0722
22265SOL    HW268790   1.876   0.907   5.235 -0.6013 -0.9248  0.9008
22266SOL     OW68791   7.040   1.844   2.292 -0.2482 -0.1437  0.0702
22266SOL    HW168792   6.972   1.906   2.318 -0.1505  0.6558 -1.4502
22266SOL    HW268793   7.008   1.759   2.320 -0.5492  0.5312  1.8953
22267SOL     OW68794   0.157   6.415   3.521  0.0588  0.1891 -0.0340
22267SOL    HW168795   0.092   6.345   3.521 -0.0034  0.2200  1.7587
22267SOL    HW268796   0.106   6.496   3.525  0.1291  0.4023 -2.1032
22268SOL     OW68797   7.453   1.630   7.175  0.1019 -0.0111 -0.1306
22268SOL    HW168798   7.376   1.596   7.221  0.6927 -0.5723  0.4592
22268SOL    HW268799   7.468   1.568   7.104 -0.4371  0.5183 -0.7253
22269SOL     OW68800   0.467   2.985   0.693  0.6703  0.1951 -0.7898
22269SOL    HW168801   0.540   3.038   0.661 -0.3802  2.7820  0.8038
22269SOL    HW268802   0.396   3.001   0.630  0.4054  0.5727 -0.4028
22270SOL     OW68803   8.553   1.813   0.221  0.0365  0.0782  0.1656
22270SOL    HW168804   8.470   1.768   0.237  0.7898 -1.3700  0.1979
22270SOL    HW268805   8.568   1.803   0.127 -1.0688  2.6286 -0.3427
22271SOL     OW68806   5.624   2.112   0.185 -0.0637  0.5302 -0.4366
22271SOL    HW168807   5.719   2.112   0.188 -0.0177  2.7972  0.1860
22271SOL    HW268808   5.600   2.205   0.184 -2.2401  0.0385 -1.9198
22272SOL     OW68809   5.463   7.885   1.175  0.2902  0.9475  0.2448
22272SOL    HW168810   5.414   7.968   1.172 -0.1718  0.6780 -2.7326
22272SOL    HW268811   5.396   7.818   1.181  0.4394  0.6810 -0.9164
22273SOL     OW68812   3.571   8.407   5.253 -0.6755  0.0350 -0.3742
22273SOL    HW168813   3.648   8.389   5.307 -0.5077 -0.1294 -0.6660
22273SOL    HW268814   3.570   8.502   5.244 -0.2426  0.0157 -0.7389
22274SOL     OW68815   1.862   1.700   5.952  0.2140  0.4587 -0.4130
22274SOL    HW168816   1.878   1.606   5.941 -0.1333  0.3454  0.0124
22274SOL    HW268817   1.767   1.708   5.950  0.2674  0.9385 -1.4822
22275SOL     OW68818   2.095   3.798   3.564  0.0039 -0.0278  0.3032
22275SOL    HW168819   2.092   3.703   3.577  0.1184 -0.0825 -0.0778
22275SOL    HW268820   2.136   3.810   3.479  1.3204  0.4127  0.9819
22276SOL     OW68821   4.678   3.971   6.708 -0.0071 -0.1827 -0.3364
22276SOL    HW168822   4.753   3.966   6.648  1.2082  1.7641  0.8988
22276SOL    HW268823   4.640   3.884   6.707  1.8455 -1.0361 -1.5676
22277SOL     OW68824   1.947   4.674   0.571 -0.7739  0.0712 -0.2603
22277SOL    HW168825   1.951   4.769   0.558  0.6343 -0.1263 -1.5697
22277SOL    HW268826   1.926   4.663   0.664  0.1514  1.6703  0.1693
22278SOL     OW68827   4.273   8.522   0.821 -0.2151 -0.2765 -0.3289
22278SOL    HW168828   4.365   8.499   0.831  0.1059  1.2348  0.6303
22278SOL    HW268829   4.227   8.462   0.879 -0.0373 -2.0709 -1.9718
22279SOL     OW68830   4.283   4.380   2.292 -0.3952  0.2087  0.7190
22279SOL    HW168831   4.224   4.443   2.334 -0.6927 -1.0638  2.3223
22279SOL    HW268832   4.231   4.301   2.283  1.0937 -1.0503  2.4577
22280SOL     OW68833   2.136   4.172   5.480 -0.2955  0.1716  0.0007
22280SOL    HW168834   2.125   4.212   5.394  0.9199  0.7965  0.1179
22280SOL    HW268835   2.048   4.142   5.504 -0.7298  0.3904 -1.2526
22281SOL     OW68836   6.650   7.372   7.250  0.3880  0.4644  0.7764
22281SOL    HW168837   6.686   7.436   7.187  1.4244 -1.8515 -1.1494
22281SOL    HW268838   6.704   7.294   7.238 -2.8179 -1.9477  0.5380
22282SOL     OW68839   6.567   2.042   0.745  0.5479 -0.4615 -0.2259
22282SOL    HW168840   6.640   1.997   0.703  1.5965  0.1923  0.8402
22282SOL    HW268841   6.601   2.069   0.830 -0.4177  1.2879 -0.3428
22283SOL     OW68842   3.437   1.491   4.343 -0.3665  0.0662  0.0074
22283SOL    HW168843   3.356   1.541   4.348 -1.0266 -1.0954  1.4211
22283SOL    HW268844   3.501   1.553   4.307 -0.9299  2.2071  2.4255
22284SOL     OW68845   5.829   5.101   5.482 -0.1755  0.1914  0.2221
22284SOL    HW168846   5.856   5.010   5.497  0.4221  0.2181 -0.6004
22284SOL    HW268847   5.835   5.112   5.387 -0.4596  1.0286  0.2948
22285SOL     OW68848   2.720   3.158   3.978  0.0034  0.4341  0.4364
22285SOL    HW168849   2.693   3.120   4.061  0.6434 -1.4681 -0.1783
22285SOL    HW268850   2.815   3.148   3.977 -0.0704 -0.3410 -0.8588
22286SOL     OW68851   3.809   4.278   2.313 -0.1976  0.2986  0.3577
22286SOL    HW168852   3.828   4.199   2.363  1.7471  0.0251 -0.7234
22286SOL    HW268853   3.802   4.248   2.222  1.5193  1.4240 -0.2045
22287SOL     OW68854   2.027   3.670   2.197  0.4198 -0.4584  0.3484
22287SOL    HW168855   2.088   3.654   2.125  0.4866  1.7492 -0.1543
22287SOL    HW268856   2.083   3.675   2.275  0.8627  1.0860 -0.0414
22288SOL     OW68857   6.962   3.730   6.662  0.4740  0.2585 -0.1353
22288SOL    HW168858   6.919   3.816   6.667  1.3254  0.6396  2.1876
22288SOL    HW268859   6.941   3.698   6.575 -1.3433  2.0517 -0.4493
22289SOL     OW68860   6.611   4.887   7.143 -0.4002  0.1680  0.0818
22289SOL    HW168861   6.570   4.910   7.227 -2.3324 -1.2116 -0.4238
22289SOL    HW268862   6.539   4.854   7.090  0.9683  0.0980 -1.8096
22290SOL     OW68863   1.258   1.083   5.271  0.7734  0.2061  0.6846
22290SOL    HW168864   1.303   1.076   5.355  1.0126 -1.3098  0.4544
22290SOL    HW268865   1.170   1.051   5.288  0.7719  0.0513  0.3973
22291SOL     OW68866   4.183   2.675   6.920  0.0683  0.0889 -0.0275
22291SOL    HW168867   4.234   2.601   6.887 -0.4989 -0.2488 -0.1543
22291SOL    HW268868   4.117   2.636   6.976 -2.1050  0.2033 -2.3472
22292SOL     OW68869   2.764   1.268   2.611 -0.4628  0.1251  0.1013
22292SOL    HW168870   2.754   1.359   2.637  1.5036  0.5473 -0.4449
22292SOL    HW268871   2.739   1.217   2.688 -3.0075  1.0219 -0.0369
22293SOL     OW68872   2.922   4.184   3.034  0.1030  0.4736  0.0849
22293SOL    HW168873   2.893   4.244   3.102 -0.7467  0.1182  0.0516
22293SOL    HW268874   2.876   4.102   3.052  0.7942  0.0048 -0.2148
22294SOL     OW68875   0.958   1.399   2.564  0.3925 -0.4234  0.1409
22294SOL    HW168876   1.045   1.438   2.555  0.1153  0.4462  1.0374
22294SOL    HW268877   0.901   1.472   2.587 -0.3367 -1.2044  0.8911
22295SOL     OW68878   8.096   5.480   7.773  0.2478 -0.0595 -0.2294
22295SOL    HW168879   8.143   5.511   7.851  1.0233 -1.2462 -0.1856
22295SOL    HW268880   8.118   5.543   7.705 -1.3388  1.6294  0.7364
22296SOL     OW68881   8.724   5.280   8.708 -0.8727  0.4900 -0.3445
22296SOL    HW168882   8.675   5.225   8.768 -0.5955  0.1095 -0.4696
22296SOL    HW268883   8.662   5.298   8.636 -0.0224 -2.2505 -1.8963
22297SOL     OW68884   2.998   3.742   3.322 -0.3282  0.0658  0.8842
22297SOL    HW168885   2.999   3.817   3.383  0.5665  0.4850  0.3755
22297SOL    HW268886   2.994   3.665   3.379 -0.4075  0.4746  1.4414
22298SOL     OW68887   1.322   0.936   8.633  0.3837 -0.5629 -0.7100
22298SOL    HW168888   1.307   0.893   8.717 -1.6306 -1.8553 -1.6544
22298SOL    HW268889   1.247   0.911   8.579  0.4692  2.0317 -2.2075
22299SOL     OW68890   5.645   4.451   5.865  0.2994 -0.1785  0.6766
22299SOL    HW168891   5.645   4.546   5.853  1.5345  0.0847  2.4680
22299SOL    HW268892   5.690   4.437   5.948  0.3077 -2.3537  0.3601
22300SOL     OW68893   2.478   3.503   4.197  0.7111 -0.1194  0.5528
22300SOL    HW168894   2.406   3.517   4.136  0.4995 -0.4294  0.7287
22300SOL    HW268895   2.436   3.467   4.275  0.8640  1.0038  1.1786
22301SOL     OW68896   7.108   6.394   0.410 -0.5873 -0.1811  0.2570
22301SOL    HW168897   7.093   6.426   0.321 -0.0480  0.9318  0.5429
22301SOL    HW268898   7.090   6.300   0.405 -0.0285 -0.2470 -1.1604
22302SOL     OW68899   3.106   0.659   2.617 -0.3294  0.2044  0.1417
22302SOL    HW168900   3.095   0.564   2.628 -1.1738  0.2857  0.0811
22302SOL    HW268901   3.199   0.674   2.631 -0.0665 -0.7263 -0.4999
22303SOL     OW68902   8.054   4.280   4.556  0.1269  0.6317 -0.0232
22303SOL    HW168903   8.066   4.245   4.644 -1.5975  0.5429  0.2103
22303SOL    HW268904   8.048   4.375   4.569 -0.8934  0.5626  0.0662
22304SOL     OW68905   7.411   7.378   2.386  0.1750 -0.3681  1.3473
22304SOL    HW168906   7.491   7.326   2.387  1.1629  1.1004  1.7581
22304SOL    HW268907   7.394   7.398   2.478 -0.8239 -0.8520  1.2891
22305SOL     OW68908   3.700   2.291   5.046  0.0775  0.2927  0.0870
22305SOL    HW168909   3.752   2.339   4.982  0.4352  0.2354  0.3239
22305SOL    HW268910   3.611   2.290   5.011  0.7663 -2.2308 -1.8717
22306SOL     OW68911   0.884   7.853   4.672 -0.5142 -1.0245  0.4587
22306SOL    HW168912   0.886   7.804   4.753  0.3151 -0.4487  0.8006
22306SOL    HW268913   0.966   7.832   4.628 -0.5524 -0.6476  0.1936
22307SOL     OW68914   5.614   0.093   7.112  0.4409 -0.2169  0.4700
22307SOL    HW168915   5.535   0.039   7.112  0.8934 -0.8922  0.5590
22307SOL    HW268916   5.638   0.101   7.019  0.2002  0.0977  0.4328
22308SOL     OW68917   1.369   4.775   2.423 -0.1544 -0.1209 -0.5108
22308SOL    HW168918   1.394   4.817   2.505 -2.2822  1.4543 -0.5744
22308SOL    HW268919   1.448   4.729   2.393  1.2206  0.8945  1.4059
22309SOL     OW68920   8.617   0.207   6.825  0.2441  0.2162  0.0166
22309SOL    HW168921   8.524   0.187   6.817  0.5277 -1.2173  0.1548
22309SOL    HW268922   8.621   0.278   6.889 -0.6162 -1.0338  1.4901
22310SOL     OW68923   3.046   7.331   8.466 -0.0809  0.3622  0.2044
22310SOL    HW168924   3.073   7.337   8.374  0.1123  1.2555  0.3051
22310SOL    HW268925   3.112   7.382   8.514  0.0478 -0.4359  0.8907
22311SOL     OW68926   1.623   6.276   7.179 -0.1322  0.1694  0.1587
22311SOL    HW168927   1.672   6.201   7.211  1.4123  0.9668 -0.1879
22311SOL    HW268928   1.687   6.348   7.178 -0.5514  0.6593 -2.8170
22312SOL     OW68929   8.403   1.379   3.220  0.3619  0.0866  0.4654
22312SOL    HW168930   8.355   1.299   3.239 -1.3061  1.0392  0.4667
22312SOL    HW268931   8.475   1.379   3.283  1.0193 -1.8832 -0.2240
22313SOL     OW68932   4.204   2.845   7.946  0.8779 -0.0162 -0.2417
22313SOL    HW168933   4.167   2.788   8.013 -0.8399 -0.2507 -1.3232
22313SOL    HW268934   4.237   2.785   7.879  1.0971  0.2326 -0.3591
22314SOL     OW68935   7.022   4.734   3.943  0.0799 -0.3089 -0.0360
22314SOL    HW168936   6.995   4.658   3.893  2.7397 -1.0339 -0.5208
22314SOL    HW268937   7.093   4.773   3.892  1.8547 -0.1786  2.3611
22315SOL     OW68938   7.188   8.080   2.602 -0.3112  0.2914 -0.3471
22315SOL    HW168939   7.153   8.081   2.691  0.7496  0.8900  0.0805
22315SOL    HW268940   7.115   8.109   2.547 -0.7105  0.7755  0.4224
22316SOL     OW68941   6.361   2.448   8.576 -0.2240  0.4377 -0.1929
22316SOL    HW168942   6.333   2.538   8.562 -0.3597  0.0946 -2.6181
22316SOL    HW268943   6.436   2.437   8.517  1.1878 -0.4243  1.6868
22317SOL     OW68944   4.627   1.886   1.514 -0.2684  0.1011 -0.3361
22317SOL    HW168945   4.542   1.928   1.503 -0.0890  0.3947 -0.6419
22317SOL    HW268946   4.636   1.830   1.437 -0.9497 -1.3046  0.5690
22318SOL     OW68947   4.479   6.849   6.347 -0.0078  0.0495  0.2169
22318SOL    HW168948   4.436   6.902   6.415 -0.9874  0.4513 -0.6850
22318SOL    HW268949   4.534   6.912   6.301 -1.8064  0.5449 -1.3915
22319SOL     OW68950   7.400   4.017   3.614 -0.5768  0.3600 -0.1066
22319SOL    HW168951   7.346   4.062   3.680  0.0265  0.8463  0.0629
22319SOL    HW268952   7.435   4.088   3.560  0.3350  0.0885  0.1165
22320SOL     OW68953   4.906   8.767   8.736  0.1540 -0.0549 -0.2147
22320SOL    HW168954   4.949   8.841   8.778  0.2693  0.9668 -2.0247
22320SOL    HW268955   4.958   8.691   8.761  0.4777  0.5697  1.0710
22321SOL     OW68956   7.293   7.436   2.924  0.4282  0.3733 -0.5639
22321SOL    HW168957   7.378   7.438   2.880 -0.4136 -1.1440 -2.3984
22321SOL    HW268958   7.231   7.468   2.859 -0.4859  1.0349  0.5916
22322SOL     OW68959   2.973   6.728   7.959  0.1114  0.3524  0.1603
22322SOL    HW168960   2.883   6.737   7.930  0.0996 -1.4233 -0.4214
22322SOL    HW268961   3.026   6.746   7.881  0.1525 -1.5424 -0.2886
22323SOL     OW68962   0.635   7.644   0.398 -0.2254 -0.1418  0.6649
22323SOL    HW168963   0.580   7.689   0.334  0.1915 -0.8825 -0.2439
22323SOL    HW268964   0.713   7.700   0.405  0.1853 -0.5803 -0.2753
22324SOL     OW68965   4.948   6.448   5.843  0.5245 -0.1934 -0.7138
22324SOL    HW168966   4.893   6.371   5.830 -2.1740  1.4084  0.4923
22324SOL    HW268967   4.984   6.467   5.756 -0.6698 -1.4373 -1.5156
22325SOL     OW68968   5.070   6.495   7.378 -0.1725 -0.0558 -0.1123
22325SOL    HW168969   5.003   6.550   7.418  1.2648  1.0293  0.8859
22325SOL    HW268970   5.151   6.546   7.384  0.9577 -1.7223 -0.3732
22326SOL     OW68971   1.029   8.308   8.758 -0.0303 -0.1435  0.8510
22326SOL    HW168972   1.025   8.242   8.827  1.7671  0.2064  1.3368
22326SOL    HW268973   1.094   8.371   8.789 -2.7456  2.7441  1.1128
22327SOL     OW68974   6.320   2.109   3.376 -0.1490 -0.4592 -0.6686
22327SOL    HW168975   6.280   2.028   3.344 -1.8661 -0.3073  0.9055
22327SOL    HW268976   6.295   2.113   3.468  0.2164  1.6821 -0.6116
22328SOL     OW68977   0.060   1.775   2.777 -0.1476 -0.3502 -0.0746
22328SOL    HW168978   0.057   1.687   2.742 -2.0364 -0.0987 -0.6365
22328SOL    HW268979   0.085   1.830   2.702  0.0586 -0.2911  0.0356
22329SOL     OW68980   0.828   1.633   2.579  0.5530 -0.0863  0.6504
22329SOL    HW168981   0.879   1.689   2.637  0.5578 -0.4625  1.0149
22329SOL    HW268982   0.772   1.693   2.530  2.2412  0.4825 -0.7026
22330SOL     OW68983   7.564   5.150   4.324 -0.2722 -0.0585 -0.1618
22330SOL    HW168984   7.584   5.213   4.393  0.5585 -0.0851 -0.3698
22330SOL    HW268985   7.536   5.204   4.250 -1.2542 -0.0355  0.2159
22331SOL     OW68986   1.061   3.265   7.436  0.2587 -0.6832  0.4470
22331SOL    HW168987   1.043   3.238   7.346 -0.0769 -0.4280  0.4368
22331SOL    HW268988   1.095   3.355   7.427 -1.3779 -0.0151  0.6992
22332SOL     OW68989   3.734   6.847   7.275  0.1598  0.0921 -0.4846
22332SOL    HW168990   3.690   6.896   7.344 -0.4480 -1.2233  0.1006
22332SOL    HW268991   3.665   6.825   7.213  0.6863  1.1922 -1.5077
22333SOL     OW68992   0.577   8.836   3.399 -0.6446 -0.7103 -0.4913
22333SOL    HW168993   0.627   8.766   3.441 -0.6442 -1.2182 -1.3283
22333SOL    HW268994   0.595   8.827   3.306 -2.7027 -1.2532 -0.9019
22334SOL     OW68995   5.711   6.644   5.494  0.5239 -0.6915 -0.1401
22334SOL    HW168996   5.688   6.589   5.568 -1.5941  0.4564  0.1347
22334SOL    HW268997   5.721   6.732   5.531 -0.1435 -0.1759 -1.1270
22335SOL     OW68998   4.484   3.473   0.640  0.3031  0.0144 -0.0166
22335SOL    HW168999   4.448   3.445   0.556  2.1401  0.9976 -1.1851
22335SOL    HW269000   4.419   3.535   0.674 -1.8155 -2.4133  0.6978
22336SOL     OW69001   8.315   1.112   7.828 -0.1745  0.2452 -0.2539
22336SOL    HW169002   8.229   1.124   7.868 -0.2529  1.5313 -0.7634
22336SOL    HW269003   8.362   1.193   7.848  1.0212 -0.5412  0.2407
22337SOL     OW69004   1.491   0.783   6.659  0.0684  0.3486  0.3728
22337SOL    HW169005   1.505   0.696   6.622 -0.9270 -1.0270  2.9170
22337SOL    HW269006   1.404   0.809   6.627  0.3211  0.3794 -0.3034
22338SOL     OW69007   3.159   4.690   1.107  0.2903 -0.0361  0.2239
22338SOL    HW169008   3.215   4.737   1.169 -0.9651  1.2992  0.3787
22338SOL    HW269009   3.209   4.688   1.026  0.3973  1.5515  0.2287
22339SOL     OW69010   5.352   0.616   0.866 -0.6394 -0.3028 -0.3574
22339SOL    HW169011   5.309   0.666   0.798 -1.0246  0.9759  0.7823
22339SOL    HW269012   5.339   0.524   0.841 -1.1124  0.1347 -1.7643
22340SOL     OW69013   6.346   4.580   2.071 -0.3904  0.0433  0.0401
22340SOL    HW169014   6.337   4.551   2.162  0.1471  0.9521  0.3874
22340SOL    HW269015   6.347   4.675   2.076  1.5667  0.1003 -0.7237
22341SOL     OW69016   0.780   4.992   3.524  0.2447 -0.2231  0.2537
22341SOL    HW169017   0.843   5.060   3.500 -0.8028  0.6325 -0.1836
22341SOL    HW269018   0.701   5.016   3.476 -1.4365  0.5753  3.1749
22342SOL     OW69019   3.744   7.956   0.962 -0.0054 -0.3816  0.8046
22342SOL    HW169020   3.680   7.997   0.904  0.1103  0.8331  1.5005
22342SOL    HW269021   3.751   7.866   0.930 -0.6731 -0.0188 -0.4378
22343SOL     OW69022   0.208   7.767   0.947 -0.0329  0.1515  0.3898
22343SOL    HW169023   0.181   7.823   0.874 -1.5349 -0.2220  0.6275
22343SOL    HW269024   0.300   7.747   0.928 -0.7718 -1.2525 -2.2903
22344SOL     OW69025   3.271   4.559   2.653 -0.2832  0.4484  0.3529
22344SOL    HW169026   3.199   4.584   2.711 -0.3454 -0.6326  0.7712
22344SOL    HW269027   3.315   4.488   2.700  0.4748  0.4652 -0.3310
22345SOL     OW69028   8.233   5.749   2.354  0.4452  0.0478  0.4069
22345SOL    HW169029   8.205   5.786   2.438 -1.4571 -0.5033  0.0578
22345SOL    HW269030   8.263   5.824   2.303 -1.2476  0.8129  0.5071
22346SOL     OW69031   8.327   3.500   5.455  0.4226 -0.1397  0.2112
22346SOL    HW169032   8.249   3.453   5.484  0.2916  0.0179  0.1183
22346SOL    HW269033   8.350   3.556   5.530 -0.0376  0.4206 -0.0535
22347SOL     OW69034   1.169   7.145   6.232 -0.1827 -0.0774 -0.3091
22347SOL    HW169035   1.097   7.128   6.293 -0.3506  0.8081 -0.2437
22347SOL    HW269036   1.245   7.106   6.274 -0.3809  0.1425  0.2702
22348SOL     OW69037   6.541   5.113   2.117  0.0424  0.0946  0.7372
22348SOL    HW169038   6.587   5.042   2.072  0.4765  1.2304 -0.6815
22348SOL    HW269039   6.600   5.139   2.187  1.2335  0.9757 -0.5459
22349SOL     OW69040   7.382   6.883   3.867  0.6243  0.6048  0.1418
22349SOL    HW169041   7.381   6.959   3.808  2.3603 -1.0531 -2.1763
22349SOL    HW269042   7.474   6.862   3.878  0.1525 -1.5685  0.2273
22350SOL     OW69043   5.271   8.634   1.205  0.0426  0.1633 -0.4401
22350SOL    HW169044   5.226   8.612   1.123  0.2452  1.3519 -0.8977
22350SOL    HW269045   5.362   8.609   1.189 -0.3470 -1.9710  0.3807
22351SOL     OW69046   4.866   1.036   6.412  0.0555  0.2508  0.2597
22351SOL    HW169047   4.775   1.031   6.442 -0.2997  3.5699  0.0804
22351SOL    HW269048   4.910   0.965   6.460 -2.3861 -0.8633  1.0598
22352SOL     OW69049   5.514   2.393   4.393  0.1510  0.0061 -0.5420
22352SOL    HW169050   5.420   2.396   4.375  0.3107  2.4656 -1.3310
22352SOL    HW269051   5.534   2.300   4.404 -2.4637 -0.5268  0.2469
22353SOL     OW69052   5.514   5.131   1.409  0.3632 -0.4081 -0.7545
22353SOL    HW169053   5.597   5.086   1.392  0.1411 -1.2056  0.1923
22353SOL    HW269054   5.467   5.126   1.325  1.2398  0.0043 -1.2830
22354SOL     OW69055   4.477   5.059   5.409 -0.3244  0.0424 -0.1528
22354SOL    HW169056   4.450   5.148   5.433  3.1034  1.2424 -0.1029
22354SOL    HW269057   4.563   5.071   5.368  0.2473 -3.2784 -0.1714
22355SOL     OW69058   4.282   2.937   6.026 -0.7272 -0.1107 -0.8589
22355SOL    HW169059   4.254   3.021   6.064  0.0057  0.1125 -0.8038
22355SOL    HW269060   4.235   2.932   5.943  0.3871  1.1048 -1.6141
22356SOL     OW69061   2.727   2.605   5.835 -0.3505  0.3537  0.1768
22356SOL    HW169062   2.684   2.547   5.898  0.8147  0.0249  0.6959
22356SOL    HW269063   2.821   2.593   5.851 -0.0191  0.2793 -1.5910
22357SOL     OW69064   1.372   6.288   6.568 -0.3836 -0.3797 -0.0990
22357SOL    HW169065   1.452   6.247   6.601  0.2208  1.8106  1.3881
22357SOL    HW269066   1.303   6.226   6.591  0.5149 -0.8094  1.6550
22358SOL     OW69067   1.356   1.450   5.518  0.0959 -0.7756  0.0940
22358SOL    HW169068   1.409   1.372   5.534  1.6545  0.4627  1.3828
22358SOL    HW269069   1.365   1.502   5.598 -0.6324  0.8737 -0.8402
22359SOL     OW69070   5.992   8.786   2.846 -0.2800 -0.7298  0.3119
22359SOL    HW169071   6.006   8.877   2.819  0.1105 -0.2066  2.1249
22359SOL    HW269072   5.911   8.760   2.802  1.9512 -1.1478 -4.0240
22360SOL     OW69073   0.185   5.877   3.883  0.2295 -0.1749  0.6744
22360SOL    HW169074   0.142   5.791   3.888  1.3776 -0.7163  1.7638
22360SOL    HW269075   0.118   5.938   3.914 -0.0111 -0.9201  1.7164
22361SOL     OW69076   6.426   2.675   3.243  0.0654  0.5553  0.4164
22361SOL    HW169077   6.513   2.668   3.203 -0.1840  1.6092 -0.3503
22361SOL    HW269078   6.435   2.629   3.326  1.5118  1.0912  0.5915
22362SOL     OW69079   3.199   8.018   5.437  0.9271  0.1965  0.1414
22362SOL    HW169080   3.260   8.040   5.508  0.6840  1.1424  0.0641
22362SOL    HW269081   3.235   7.937   5.400  2.9021  1.4093 -0.7537
22363SOL     OW69082   0.799   8.178   6.658  0.6000 -0.8023  0.3144
22363SOL    HW169083   0.882   8.177   6.611 -0.0561 -1.4505 -0.8907
22363SOL    HW269084   0.758   8.094   6.636 -0.6851 -0.1937  0.2910
22364SOL     OW69085   2.480   1.746   5.620 -0.4513  0.0268 -0.2796
22364SOL    HW169086   2.425   1.753   5.698  0.3849  1.1276  0.2396
22364SOL    HW269087   2.461   1.826   5.571  1.2616  0.8665  0.3279
22365SOL     OW69088   0.880   4.406   7.000  0.1617 -0.6154  0.3242
22365SOL    HW169089   0.840   4.324   7.029 -1.6072  0.5400  1.2975
22365SOL    HW269090   0.851   4.471   7.064  1.0716  0.8959 -0.7348
22366SOL     OW69091   8.640   7.663   2.529  0.0625  0.3301 -0.3628
22366SOL    HW169092   8.709   7.724   2.554  1.0211  0.4414 -3.0010
22366SOL    HW269093   8.683   7.578   2.523 -0.8180 -0.2778  1.2517
22367SOL     OW69094   7.276   8.419   7.681  0.0644  0.3162  0.5318
22367SOL    HW169095   7.205   8.364   7.648 -0.2439  0.5274  0.8408
22367SOL    HW269096   7.354   8.384   7.639 -0.1297 -0.3568  0.7058
22368SOL     OW69097   5.436   7.908   5.620 -0.0211 -0.1253  0.1651
22368SOL    HW169098   5.472   7.985   5.665  1.4822 -0.7951  0.1525
22368SOL    HW269099   5.415   7.846   5.690 -1.7315  0.4423  0.2194
22369SOL     OW69100   5.248   0.986   8.418  0.1413  0.3137  0.2835
22369SOL    HW169101   5.199   0.957   8.495  0.7820  0.1270  0.6308
22369SOL    HW269102   5.198   0.953   8.344  0.0908 -0.4391  0.6463
22370SOL     OW69103   5.473   1.686   8.861  0.3438  0.5041 -0.3537
22370SOL    HW169104   5.423   1.729   8.930  0.2236  0.7658 -0.6020
22370SOL    HW269105   5.407   1.644   8.806  0.3042  1.6103 -1.2057
22371SOL     OW69106   0.511   4.696   6.124 -0.3467  0.6148 -0.3306
22371SOL    HW169107   0.508   4.682   6.219  0.6759 -1.1809 -0.5320
22371SOL    HW269108   0.421   4.721   6.101 -0.2588  2.7026  1.2947
22372SOL     OW69109   2.064   3.434   7.934 -0.4806 -0.2450 -0.1190
22372SOL    HW169110   2.130   3.491   7.974 -1.9858  1.9606 -0.5802
22372SOL    HW269111   2.039   3.373   8.004  0.7894  0.0176  0.5869
22373SOL     OW69112   7.257   3.735   2.844  0.1743 -0.2058  0.0092
22373SOL    HW169113   7.307   3.752   2.924 -0.8382  0.3258  0.5467
22373SOL    HW269114   7.292   3.652   2.812  2.1446  0.6463 -0.2403
22374SOL     OW69115   1.032   3.095   8.868  0.6560 -0.5659 -0.6793
22374SOL    HW169116   1.067   3.114   8.781  0.9128 -1.2070 -0.7148
22374SOL    HW269117   1.103   3.115   8.929 -0.0217  1.4582 -0.4513
22375SOL     OW69118   3.826   6.233   3.101 -0.7201 -0.1832 -0.2224
22375SOL    HW169119   3.793   6.219   3.012 -0.4522 -0.2270 -0.3146
22375SOL    HW269120   3.919   6.254   3.090  0.2178 -3.4588  0.2198
22376SOL     OW69121   1.277   4.607   8.536 -0.0967 -0.0546  0.4640
22376SOL    HW169122   1.289   4.590   8.443 -0.3910 -1.4922  0.6610
22376SOL    HW269123   1.356   4.572   8.577  0.1752  0.8575  0.7332
22377SOL     OW69124   3.104   1.601   2.354  0.5431 -0.5244  0.1562
22377SOL    HW169125   3.097   1.654   2.274 -1.7415 -0.5025  0.2845
22377SOL    HW269126   3.189   1.625   2.391  0.4253  1.6463 -0.7795
22378SOL     OW69127   6.671   5.795   3.516 -0.5294 -0.0597  0.5132
22378SOL    HW169128   6.593   5.823   3.468  0.3052 -0.9952 -1.4725
22378SOL    HW269129   6.713   5.876   3.544  0.4145  0.7346 -2.8020
22379SOL     OW69130   3.089   8.815   8.555  0.0176  0.4052 -0.0005
22379SOL    HW169131   3.023   8.855   8.498 -1.5489 -0.1943  1.3361
22379SOL    HW269132   3.173   8.841   8.516 -0.9779  0.2474 -2.4063
22380SOL     OW69133   4.746   1.534   0.847 -0.3111 -0.2972 -0.2823
22380SOL    HW169134   4.696   1.482   0.910 -0.9869 -0.5045 -0.9687
22380SOL    HW269135   4.683   1.599   0.815 -0.2229 -0.7270 -1.3593
22381SOL     OW69136   8.483   8.439   5.922  0.2217  0.7243  0.2139
22381SOL    HW169137   8.483   8.372   5.990  0.1539 -0.7869 -1.2209
22381SOL    HW269138   8.444   8.516   5.964 -0.8317 -0.5028  1.5802
22382SOL     OW69139   2.247   1.607   4.539 -0.2685 -0.1577  0.3271
22382SOL    HW169140   2.281   1.652   4.616  1.9475  1.9515 -1.7344
22382SOL    HW269141   2.292   1.523   4.539  1.4066  0.7096  0.1884
22383SOL     OW69142   1.027   2.618   2.872  0.6196  0.5829 -0.6684
22383SOL    HW169143   1.049   2.646   2.961  0.4262  0.8065 -0.6894
22383SOL    HW269144   0.966   2.685   2.841 -1.0311 -0.6550 -0.1926
22384SOL     OW69145   7.992   3.926   2.764  0.3558 -0.5616  0.9359
22384SOL    HW169146   7.995   3.924   2.859  2.0753 -0.9056  0.9151
22384SOL    HW269147   8.084   3.931   2.737 -0.1421  1.0660 -0.6886
22385SOL     OW69148   2.362   1.947   2.634  0.1409  0.0285  0.0912
22385SOL    HW169149   2.269   1.945   2.613  0.2223 -0.3675 -0.2339
22385SOL    HW269150   2.380   1.863   2.675 -0.1548  1.0193  2.4327
22386SOL     OW69151   8.238   8.249   1.903 -0.8310 -0.3208  0.0732
22386SOL    HW169152   8.232   8.153   1.908  2.0403 -0.5679  0.5175
22386SOL    HW269153   8.301   8.266   1.834 -0.4592  1.2152  0.7380
22387SOL     OW69154   4.092   2.772   0.451  0.1018 -0.2162 -0.4897
22387SOL    HW169155   4.146   2.747   0.527 -0.4939 -2.6814 -0.7837
22387SOL    HW269156   4.152   2.764   0.377  0.6336  2.0169 -0.3531
22388SOL     OW69157   4.345   7.137   8.301 -0.0369  0.6162  0.0660
22388SOL    HW169158   4.374   7.224   8.330 -2.2002  0.9510  1.3950
22388SOL    HW269159   4.425   7.084   8.300  1.1745  2.3713  0.1058
22389SOL     OW69160   7.805   7.511   6.592 -0.2344  0.0855 -0.2644
22389SOL    HW169161   7.855   7.454   6.650 -1.8133 -0.2899  0.7954
22389SOL    HW269162   7.791   7.459   6.513  0.3491 -0.0998 -0.2470
22390SOL     OW69163   5.541   5.493   3.785  0.3769 -0.0588 -0.0856
22390SOL    HW169164   5.494   5.412   3.767  0.1999  0.1611 -0.6271
22390SOL    HW269165   5.534   5.504   3.880 -2.0146  0.7569 -0.2839
22391SOL     OW69166   5.425   1.164   6.814  0.1978 -0.0142  0.0549
22391SOL    HW169167   5.488   1.107   6.859  1.0455 -0.0335 -1.1216
22391SOL    HW269168   5.456   1.253   6.830 -1.2764  0.2094  2.1205
22392SOL     OW69169   8.395   8.654   0.353  0.5447 -0.5820  0.3208
22392SOL    HW169170   8.448   8.574   0.351 -1.1202 -1.7315  0.5073
22392SOL    HW269171   8.352   8.656   0.267  0.2292 -0.1137  0.4855
22393SOL     OW69172   1.112   7.519   4.057 -0.4858  0.4735 -0.2140
22393SOL    HW169173   1.059   7.544   4.133 -0.1247 -0.0522  0.2164
22393SOL    HW269174   1.147   7.433   4.080  1.8872  1.4655  0.2160
22394SOL     OW69175   7.408   7.450   0.242 -0.0300  0.0021  0.0585
22394SOL    HW169176   7.469   7.487   0.178  2.9005 -2.4124  1.1945
22394SOL    HW269177   7.347   7.398   0.189 -0.9705  2.1049 -1.0670
22395SOL     OW69178   3.781   2.048   6.261 -0.4460 -0.1645  0.4908
22395SOL    HW169179   3.730   2.059   6.341 -1.2977  2.9752 -0.3464
22395SOL    HW269180   3.742   2.110   6.199  2.1901 -0.2036 -1.3599
22396SOL     OW69181   5.679   2.604   4.434 -0.5743  0.0339 -0.2221
22396SOL    HW169182   5.760   2.566   4.467 -1.6170 -0.9118  1.3999
22396SOL    HW269183   5.625   2.529   4.410 -1.5118  0.5763  0.1177
22397SOL     OW69184   2.889   2.489   4.658 -0.1684  0.0022  0.1770
22397SOL    HW169185   2.982   2.475   4.641 -0.1635 -0.3917  0.5134
22397SOL    HW269186   2.852   2.401   4.664 -0.6574  0.1599 -0.4508
22398SOL     OW69187   3.734   2.890   7.658  0.0849 -0.1369  0.5976
22398SOL    HW169188   3.690   2.943   7.725 -0.8321 -0.3708  0.1927
22398SOL    HW269189   3.666   2.872   7.593  0.4717 -1.5395  0.5561
22399SOL     OW69190   8.716   6.696   7.155 -0.3138 -0.2688 -0.0962
22399SOL    HW169191   8.773   6.773   7.163 -3.3343  2.2836 -1.0219
22399SOL    HW269192   8.746   6.637   7.223  2.3195  1.5844  0.5432
22400SOL     OW69193   3.363   6.159   8.841 -0.0899 -0.1390 -0.0829
22400SOL    HW169194   3.329   6.070   8.851  0.5820 -0.6115 -1.6862
22400SOL    HW269195   3.428   6.168   8.910 -0.7477 -0.5925  0.6050
22401SOL     OW69196   6.780   7.268   8.169  0.2037 -0.3031  0.3060
22401SOL    HW169197   6.792   7.269   8.264  0.6003 -2.0819  0.3041
22401SOL    HW269198   6.863   7.238   8.134 -0.3903 -1.0422 -0.5111
22402SOL     OW69199   6.637   0.516   8.403 -0.0363  0.7013 -0.3151
22402SOL    HW169200   6.607   0.556   8.484  0.9628  2.2295 -0.6627
22402SOL    HW269201   6.569   0.536   8.339  0.2269  1.4643 -0.3675
22403SOL     OW69202   8.350   4.413   0.047  0.6602 -0.4763  0.4990
22403SOL    HW169203   8.315   4.436   0.133 -0.8361  2.5764 -0.7596
22403SOL    HW269204   8.421   4.476   0.032 -1.2484  1.3566 -1.7075
22404SOL     OW69205   1.278   3.853   5.511  0.4513 -0.4855 -0.0167
22404SOL    HW169206   1.183   3.843   5.516  0.1669  0.8479 -1.7519
22404SOL    HW269207   1.307   3.775   5.464  0.1414 -0.6024 -0.0184
22405SOL     OW69208   2.370   2.123   3.634 -0.4341 -0.2120 -0.0876
22405SOL    HW169209   2.440   2.174   3.594 -1.6219  0.6598 -1.1449
22405SOL    HW269210   2.362   2.158   3.723 -0.6724  0.9055 -0.5287
22406SOL     OW69211   1.409   0.975   2.361  0.1573  0.2391  0.8670
22406SOL    HW169212   1.326   0.983   2.407 -0.5987 -0.9540 -0.2195
22406SOL    HW269213   1.392   0.911   2.292  1.8395  0.3636  0.2922
22407SOL     OW69214   6.926   2.448   8.823  0.4459 -0.2645  0.1713
22407SOL    HW169215   6.944   2.501   8.746  0.6689 -0.7146 -0.0954
22407SOL    HW269216   6.831   2.443   8.828  0.4064  0.8055  0.6534
22408SOL     OW69217   6.697   7.237   8.698 -0.5220  0.3988 -0.5470
22408SOL    HW169218   6.623   7.282   8.738  0.1085  0.8859  0.0933
22408SOL    HW269219   6.771   7.256   8.755 -0.4979 -2.7075  0.6681
22409SOL     OW69220   4.533   5.603   1.773 -0.2363  0.2649 -0.0267
22409SOL    HW169221   4.475   5.647   1.835 -0.1601 -0.6108  0.6945
22409SOL    HW269222   4.620   5.641   1.790 -0.3218  0.4519 -0.0092
22410SOL     OW69223   8.800   4.458   8.758 -0.1403 -0.0127 -0.5556
22410SOL    HW169224   8.814   4.435   8.666 -0.6393 -1.1103 -0.3710
22410SOL    HW269225   8.840   4.386   8.807  3.0322  2.0673  0.2197
22411SOL     OW69226   5.568   5.101   3.172  0.4028 -0.0907 -0.0835
22411SOL    HW169227   5.557   5.083   3.265  0.7566  0.5526  0.0878
22411SOL    HW269228   5.649   5.056   3.148  0.0726 -0.6382 -0.1911
22412SOL     OW69229   7.245   2.600   2.703  0.8228 -0.2022 -0.9558
22412SOL    HW169230   7.267   2.686   2.668 -0.0280  0.9720  1.2428
22412SOL    HW269231   7.150   2.594   2.696  0.5286  0.3732  1.6355
22413SOL     OW69232   1.875   4.096   5.601  0.1254  0.4194  0.0650
22413SOL    HW169233   1.882   4.076   5.695 -0.0396  3.6694  0.8994
22413SOL    HW269234   1.792   4.142   5.592 -0.5712 -1.0842 -2.0409
22414SOL     OW69235   7.232   1.667   7.590 -0.6742  0.0262 -0.0774
22414SOL    HW169236   7.145   1.660   7.551  0.2532 -0.0842 -2.3324
22414SOL    HW269237   7.288   1.615   7.531  1.4297  2.5779 -0.5164
22415SOL     OW69238   0.201   8.174   8.450 -0.0841  0.0343 -0.8076
22415SOL    HW169239   0.254   8.251   8.430 -0.7351  1.2742  1.7748
22415SOL    HW269240   0.113   8.197   8.419 -0.2133  0.2239 -0.3113
22416SOL     OW69241   7.658   4.771   4.894 -0.0764 -0.2344  0.1067
22416SOL    HW169242   7.646   4.676   4.886  0.6541 -0.2904 -0.4016
22416SOL    HW269243   7.726   4.792   4.831 -0.6531  0.7308 -0.2123
22417SOL     OW69244   2.262   2.502   5.662 -0.0303 -0.1653  0.2015
22417SOL    HW169245   2.243   2.471   5.573  1.8374 -2.2873  0.4523
22417SOL    HW269246   2.353   2.529   5.659  0.0400 -0.2243  1.4755
22418SOL     OW69247   5.011   7.023   7.060 -0.2940 -0.1148  0.2763
22418SOL    HW169248   5.053   6.941   7.083  2.1179  0.8779 -0.3290
22418SOL    HW269249   4.955   7.000   6.985  1.0362 -1.0526 -0.4733
22419SOL     OW69250   5.069   5.018   0.043 -0.3488 -0.0935  0.5505
22419SOL    HW169251   5.030   5.081  -0.018  0.7445 -0.4495 -0.5673
22419SOL    HW269252   5.027   5.037   0.127 -1.8391  0.4760 -0.2805
22420SOL     OW69253   1.104   8.745   0.632 -0.2442 -1.1184  0.0350
22420SOL    HW169254   1.090   8.652   0.615 -2.4727 -0.6244 -1.1132
22420SOL    HW269255   1.072   8.789   0.554 -0.7884  0.7000  1.2245
22421SOL     OW69256   6.127   2.055   0.500 -0.0865  0.7713 -0.2802
22421SOL    HW169257   6.188   2.051   0.426 -0.1251 -2.1383 -0.2496
22421SOL    HW269258   6.175   2.105   0.567  1.6536 -0.0498 -0.8385
22422SOL     OW69259   7.466   7.367   1.145  0.3097  0.1051  0.1274
22422SOL    HW169260   7.494   7.319   1.223 -0.7972 -0.5765  0.1441
22422SOL    HW269261   7.505   7.319   1.072 -0.8915 -0.9587  0.1376
22423SOL     OW69262   3.807   7.420   1.231  0.2176 -0.4805 -0.8539
22423SOL    HW169263   3.792   7.370   1.311 -1.5088 -0.5690 -1.2131
22423SOL    HW269264   3.860   7.362   1.176  0.1017 -1.0227 -0.4047
22424SOL     OW69265   7.093   7.542   5.737  0.3528 -0.1922 -0.0745
22424SOL    HW169266   7.069   7.452   5.716  1.7837 -0.5149 -0.4786
22424SOL    HW269267   7.065   7.554   5.828  0.6956 -1.2632  0.1886
22425SOL     OW69268   3.746   7.059   8.235  0.3975  0.7359  0.4971
22425SOL    HW169269   3.831   7.030   8.201  0.7916  0.6928  1.4954
22425SOL    HW269270   3.697   6.978   8.249  0.3471  0.7365  0.3281
22426SOL     OW69271   3.877   0.544   1.413  0.5320  0.1775 -0.0263
22426SOL    HW169272   3.837   0.485   1.349  0.6447 -0.3792  0.4080
22426SOL    HW269273   3.926   0.486   1.471  3.2856  0.9131 -1.4193
22427SOL     OW69274   6.509   7.005   4.856  0.1192 -0.4772  0.1409
22427SOL    HW169275   6.463   7.077   4.898 -0.6507 -0.6361 -0.4130
22427SOL    HW269276   6.572   7.047   4.798 -0.2181 -0.2475 -0.0615
22428SOL     OW69277   1.318   7.522   2.920  0.2455  0.0626  0.7999
22428SOL    HW169278   1.306   7.596   2.860 -0.1075 -0.2880  0.4287
22428SOL    HW269279   1.393   7.475   2.885  0.1071 -0.0807  0.6925
22429SOL     OW69280   1.019   4.146   4.594 -0.2067 -0.4495 -0.4892
22429SOL    HW169281   0.955   4.142   4.524 -0.5344  1.2623 -0.3298
22429SOL    HW269282   1.021   4.238   4.620  0.5232 -0.8902  1.1741
22430SOL     OW69283   0.529   8.228   5.800 -0.4178  0.4707  0.4803
22430SOL    HW169284   0.522   8.197   5.710 -1.3212 -2.0873  1.3310
22430SOL    HW269285   0.613   8.192   5.831  0.4207  2.2502  0.3912
22431SOL     OW69286   6.813   4.759   1.756 -0.4585  0.7474  0.5325
22431SOL    HW169287   6.884   4.788   1.813 -0.1796  0.7946  0.1645
22431SOL    HW269288   6.774   4.685   1.802  1.7150 -1.2262 -0.5889
22432SOL     OW69289   3.115   2.424   0.603  0.5738  0.7862 -0.1022
22432SOL    HW169290   3.074   2.342   0.578  2.5542 -0.3293  0.1020
22432SOL    HW269291   3.046   2.490   0.593 -1.3191 -1.0046  0.5738
22433SOL     OW69292   4.701   1.041   2.304  0.2348 -0.1230  0.0384
22433SOL    HW169293   4.609   1.017   2.296  0.3505 -0.0194 -2.0262
22433SOL    HW269294   4.700   1.136   2.317  0.0534  0.4527 -3.2993
22434SOL     OW69295   8.159   0.903   5.643 -0.0262  0.0368 -0.0969
22434SOL    HW169296   8.240   0.940   5.679  0.5095 -0.1462 -1.0891
22434SOL    HW269297   8.091   0.966   5.667  0.6082  0.8136 -0.3037
22435SOL     OW69298   5.416   4.888   4.577 -0.1583 -0.5536 -0.6739
22435SOL    HW169299   5.372   4.894   4.492 -0.4799 -0.1242 -0.4852
22435SOL    HW269300   5.345   4.896   4.641  0.2480  0.8247 -0.3575
22436SOL     OW69301   5.967   3.287   3.325 -0.4050 -0.0795 -0.1215
22436SOL    HW169302   5.894   3.269   3.385 -0.5061  2.5397  0.6516
22436SOL    HW269303   5.925   3.299   3.240 -0.7631  0.4131  0.1211
22437SOL     OW69304   3.136   7.551   3.947 -0.2858  0.7013 -0.5675
22437SOL    HW169305   3.227   7.552   3.976 -0.7365 -0.8553  1.0991
22437SOL    HW269306   3.133   7.488   3.875 -0.1182  0.4056 -0.3170
22438SOL     OW69307   5.683   7.878   3.133 -0.0892  0.2590 -0.0493
22438SOL    HW169308   5.753   7.813   3.147 -1.2968 -1.2340 -0.6974
22438SOL    HW269309   5.604   7.834   3.164 -0.8389  1.7589  0.2477
22439SOL     OW69310   0.649   0.146   3.579  0.0139 -0.0112 -0.4696
22439SOL    HW169311   0.591   0.074   3.555 -1.2658 -0.3231  3.0468
22439SOL    HW269312   0.612   0.223   3.534 -2.7150 -0.3582  1.0033
22440SOL     OW69313   7.741   3.662   6.601  0.2088 -0.5472 -0.4245
22440SOL    HW169314   7.659   3.625   6.570 -0.1923  0.1397 -0.2048
22440SOL    HW269315   7.724   3.686   6.692  0.3940  0.3424 -0.6137
22441SOL     OW69316   6.446   2.766   7.116  0.2554 -0.0804  0.5410
22441SOL    HW169317   6.523   2.710   7.108 -0.2924 -1.1573  2.3067
22441SOL    HW269318   6.465   2.841   7.060  1.7930 -1.1657 -0.4733
22442SOL     OW69319   0.397   0.057   6.740 -0.0616 -0.0811 -0.2571
22442SOL    HW169320   0.311   0.035   6.775 -0.9590  1.1794 -1.5320
22442SOL    HW269321   0.381   0.078   6.648  1.0425  3.2458  0.1691
22443SOL     OW69322   7.443   4.687   1.139 -0.4220  0.3178 -0.1530
22443SOL    HW169323   7.501   4.762   1.146  0.6813 -0.6569  2.5129
22443SOL    HW269324   7.356   4.722   1.159 -0.3153  1.2880 -1.3337
22444SOL     OW69325   7.748   0.717   2.940  0.3443  0.4825  0.1876
22444SOL    HW169326   7.730   0.811   2.932  0.7176  0.5987  0.6983
22444SOL    HW269327   7.663   0.675   2.926 -0.0594  0.9529  1.1232
22445SOL     OW69328   6.738   1.367   3.083  0.1413  0.0629 -0.3291
22445SOL    HW169329   6.831   1.349   3.099 -0.2751 -2.7939 -0.6371
22445SOL    HW269330   6.733   1.383   2.988  0.1377 -1.6331 -0.6530
22446SOL     OW69331   0.933   5.613   4.335 -0.0399  0.2325  0.2258
22446SOL    HW169332   0.902   5.624   4.245 -1.2987  1.6015  0.7855
22446SOL    HW269333   0.914   5.521   4.355 -0.5068  0.1237 -0.6321
22447SOL     OW69334   8.503   4.271   4.859 -0.6049  0.0498  0.4073
22447SOL    HW169335   8.498   4.329   4.784 -3.5457  0.1207  0.5243
22447SOL    HW269336   8.414   4.270   4.895  0.0367 -2.1459  2.2287
22448SOL     OW69337   4.405   8.593   3.719 -0.1256  0.2685 -1.2199
22448SOL    HW169338   4.391   8.527   3.787 -1.1267  0.8457 -0.8460
22448SOL    HW269339   4.442   8.544   3.646  1.1227 -0.3276 -0.2127
22449SOL     OW69340   4.623   5.901   0.478  0.2835 -0.1690 -0.2799
22449SOL    HW169341   4.658   5.970   0.421 -0.1546  1.6082  1.4813
22449SOL    HW269342   4.573   5.845   0.420 -1.1212  2.2199 -1.5269
22450SOL     OW69343   1.352   0.748   3.563  0.2255 -0.4962 -0.1618
22450SOL    HW169344   1.429   0.695   3.546 -0.5004 -1.0197 -2.1051
22450SOL    HW269345   1.279   0.696   3.530 -0.4888  1.7626 -2.4773
22451SOL     OW69346   5.198   2.574   2.533 -0.0657  0.0737 -0.0557
22451SOL    HW169347   5.216   2.662   2.500 -0.4288  0.0355 -0.3564
22451SOL    HW269348   5.265   2.560   2.600  0.0077  0.5692 -0.0222
22452SOL     OW69349   1.768   5.121   3.327  0.1813  0.1013 -0.0787
22452SOL    HW169350   1.833   5.175   3.283 -0.1559  1.3453  0.8931
22452SOL    HW269351   1.693   5.179   3.339  0.2586 -0.1672  2.1096
22453SOL     OW69352   0.153   7.388   1.386  0.7017  0.1501 -0.3668
22453SOL    HW169353   0.202   7.306   1.377  0.9755  0.2563  0.1609
22453SOL    HW269354   0.135   7.396   1.480 -0.7045 -0.1006 -0.5830
22454SOL     OW69355   3.248   0.300   7.256 -0.3211 -0.3263 -0.2452
22454SOL    HW169356   3.301   0.221   7.270  1.0607  0.8791  2.0127
22454SOL    HW269357   3.294   0.348   7.187  1.2570  0.3786  1.2160
22455SOL     OW69358   1.478   1.669   8.637  0.2607  0.1242 -0.3837
22455SOL    HW169359   1.387   1.667   8.669  0.9479  0.8160  1.7899
22455SOL    HW269360   1.519   1.592   8.676  1.8622  2.4799  3.1443
22456SOL     OW69361   2.043   8.762   2.925 -0.2109  0.4967 -0.2419
22456SOL    HW169362   1.952   8.761   2.897 -0.0430  1.6474 -0.9273
22456SOL    HW269363   2.059   8.675   2.961 -0.8284 -0.6315 -2.5298
22457SOL     OW69364   7.612   1.700   1.432 -0.0763 -0.0228 -0.8717
22457SOL    HW169365   7.600   1.695   1.337 -2.9232  0.6676 -0.6384
22457SOL    HW269366   7.631   1.792   1.449 -1.1030  0.1614 -0.6685
22458SOL     OW69367   2.480   3.891   3.254  0.4224 -0.1529 -0.4295
22458SOL    HW169368   2.565   3.848   3.240  0.1955 -0.6918 -0.1550
22458SOL    HW269369   2.470   3.948   3.177  2.0590  1.6437  0.5999
22459SOL     OW69370   2.109   4.723   5.022 -0.2460  0.1485 -0.6119
22459SOL    HW169371   2.103   4.691   4.932 -0.9576  0.5139 -0.6976
22459SOL    HW269372   2.028   4.694   5.064  0.4385 -0.7344  0.1558
22460SOL     OW69373   0.157   8.240   0.885  0.5500 -0.6898  1.2140
22460SOL    HW169374   0.161   8.268   0.794  0.2562 -1.3501  0.9909
22460SOL    HW269375   0.183   8.317   0.936  0.0757 -0.1184  0.6047
22461SOL     OW69376   3.911   5.009   8.624 -0.3675 -0.0636 -0.5286
22461SOL    HW169377   3.846   5.076   8.604 -2.4371 -1.7035  0.2897
22461SOL    HW269378   3.877   4.929   8.582  2.1747 -0.5971 -1.7686
22462SOL     OW69379   8.260   2.900   7.724 -0.2672 -0.0588 -0.0844
22462SOL    HW169380   8.234   2.934   7.638  0.9623 -1.3557 -1.0100
22462SOL    HW269381   8.252   2.805   7.715  1.2929 -0.2950  0.7464
22463SOL     OW69382   0.901   8.491   0.337 -0.1649 -0.1161  0.1455
22463SOL    HW169383   0.838   8.562   0.325 -0.5631 -0.5289 -0.2136
22463SOL    HW269384   0.945   8.512   0.419  0.9773  1.5132 -0.8204
22464SOL     OW69385   3.999   4.453   3.218  0.0718 -0.1200  0.8518
22464SOL    HW169386   3.906   4.444   3.240 -0.4225  1.5357 -0.3381
22464SOL    HW269387   4.044   4.456   3.302 -1.0848  0.1896  1.4752
22465SOL     OW69388   2.480   0.338   8.641  0.3299  0.2495 -0.1831
22465SOL    HW169389   2.468   0.282   8.718  1.1985  2.3611  1.5913
22465SOL    HW269390   2.574   0.330   8.621  0.2529  0.2836 -0.5593
22466SOL     OW69391   4.503   3.397   3.137  0.4324 -0.3050  0.4276
22466SOL    HW169392   4.577   3.375   3.194 -0.6483 -0.3330  1.8900
22466SOL    HW269393   4.436   3.333   3.159  0.1484 -0.6489 -1.3102
22467SOL     OW69394   8.097   3.650   7.440 -0.0932 -0.1976 -0.0922
22467SOL    HW169395   8.186   3.629   7.467 -0.0220  1.2470  0.9250
22467SOL    HW269396   8.044   3.635   7.519 -0.9026 -1.8159 -0.9032
22468SOL     OW69397   2.546   4.997   0.415 -0.0224 -0.3348  0.0747
22468SOL    HW169398   2.618   4.967   0.359  0.0374  0.0235 -0.0404
22468SOL    HW269399   2.556   5.092   0.418  0.4146 -0.4002  1.3030
22469SOL     OW69400   7.172   0.010   5.762 -0.7247 -0.2975 -0.1417
22469SOL    HW169401   7.134   0.011   5.850  0.2930  0.2632  0.3048
22469SOL    HW269402   7.253  -0.040   5.771 -0.3285  0.2445 -0.6372
22470SOL     OW69403   2.793   6.999   6.831 -0.3320 -0.3500  0.2293
22470SOL    HW169404   2.788   6.923   6.772 -0.7703 -0.4500  0.3858
22470SOL    HW269405   2.762   7.072   6.779 -1.8372 -0.6445  0.6590
22471SOL     OW69406   1.117   4.415   8.259 -0.1019 -0.0578 -0.1317
22471SOL    HW169407   1.164   4.348   8.309  1.5378  2.2565  1.6474
22471SOL    HW269408   1.145   4.401   8.169  1.9682 -0.4292  0.5095
22472SOL     OW69409   6.731   0.638   2.000 -0.2074 -0.2742 -0.7205
22472SOL    HW169410   6.690   0.556   1.975 -0.2454 -0.6590  0.5571
22472SOL    HW269411   6.825   0.618   2.003 -0.3770 -0.9999  2.0267
22473SOL     OW69412   6.263   4.427   7.611  0.0924 -0.3440 -0.2036
22473SOL    HW169413   6.266   4.515   7.648  1.8826 -0.3615 -0.2171
22473SOL    HW269414   6.354   4.399   7.608 -0.0656 -0.9495 -3.1485
22474SOL     OW69415   0.315   0.149   4.078  0.0823  0.0823  0.1360
22474SOL    HW169416   0.302   0.223   4.019 -0.9446  0.0251  0.2757
22474SOL    HW269417   0.410   0.144   4.089  0.3077  0.0801 -1.5292
22475SOL     OW69418   8.088   5.972   4.024 -0.0402  0.3183 -0.4038
22475SOL    HW169419   8.046   5.897   4.068  0.7475  0.8923  1.4018
22475SOL    HW269420   8.023   6.042   4.029  0.2550  0.5427  0.3528
22476SOL     OW69421   7.270   3.414   7.493 -0.4456  0.7228  0.5535
22476SOL    HW169422   7.308   3.366   7.419 -1.5283 -0.2939  0.6345
22476SOL    HW269423   7.324   3.493   7.500  0.5338  0.1750 -0.4447
22477SOL     OW69424   0.093   8.062   0.197  0.5004 -0.5499 -0.8329
22477SOL    HW169425   0.063   8.152   0.183 -0.7494 -0.6932  0.6839
22477SOL    HW269426   0.063   8.014   0.120  0.2305  0.1040 -1.1426
22478SOL     OW69427   3.755   7.778   7.976  0.6555  0.4499 -0.0222
22478SOL    HW169428   3.773   7.729   7.896 -2.0712 -2.7619  1.0763
22478SOL    HW269429   3.702   7.718   8.029  0.8367  3.0679  3.4587
22479SOL     OW69430   0.884   1.034   2.335  0.4579 -0.1041  0.1980
22479SOL    HW169431   0.847   1.016   2.249  1.4955 -0.3432 -0.2145
22479SOL    HW269432   0.941   1.109   2.321 -0.4925  0.7948  0.9988
22480SOL     OW69433   2.280   8.573   8.443  0.0012 -0.1974 -0.1260
22480SOL    HW169434   2.367   8.560   8.481  1.0092  1.2265 -1.7667
22480SOL    HW269435   2.223   8.584   8.519  1.1392 -1.6347  1.0085
22481SOL     OW69436   3.002   5.510   4.690  0.0016  0.0626  0.4388
22481SOL    HW169437   2.930   5.518   4.627 -0.6388 -0.6244  1.0613
22481SOL    HW269438   2.962   5.470   4.767  1.3536 -1.7890  0.2608
22482SOL     OW69439   0.164   8.761   6.814  0.2441  0.1842  0.2841
22482SOL    HW169440   0.090   8.815   6.842 -0.4825 -0.5309 -0.2208
22482SOL    HW269441   0.128   8.704   6.746  1.2501 -0.2162  0.0688
22483SOL     OW69442   3.607   5.573   4.298 -0.1573 -0.6137  0.1213
22483SOL    HW169443   3.696   5.594   4.269 -0.2843  0.9885  0.7922
22483SOL    HW269444   3.617   5.490   4.345  1.3304  0.4003  1.7215
22484SOL     OW69445   3.969   8.516   5.619 -0.0869  0.1930  0.3313
22484SOL    HW169446   4.001   8.509   5.710  0.3864  1.3961  0.2830
22484SOL    HW269447   3.897   8.579   5.624 -0.4721 -0.2167 -0.0358
22485SOL     OW69448   1.605   4.639   5.950  0.6029  0.1002  0.2541
22485SOL    HW169449   1.635   4.668   6.036  3.8361  1.1640 -1.0751
22485SOL    HW269450   1.563   4.717   5.912 -1.5554 -0.5951  1.0681
22486SOL     OW69451   3.620   3.174   5.601  0.0379  0.2592  0.0387
22486SOL    HW169452   3.577   3.095   5.567 -0.4496  0.6666 -0.3084
22486SOL    HW269453   3.678   3.142   5.670 -1.0771 -0.2745  0.7560
22487SOL     OW69454   3.653   7.398   1.520  0.1696  0.1386 -0.0633
22487SOL    HW169455   3.620   7.314   1.552 -0.9853  1.0126  1.1309
22487SOL    HW269456   3.726   7.420   1.578  0.8498 -0.2849 -0.7339
22488SOL     OW69457   0.662   5.961   4.562 -0.1470  1.0600 -0.4228
22488SOL    HW169458   0.733   5.986   4.621 -0.0977  1.2803 -0.5745
22488SOL    HW269459   0.694   5.882   4.518  1.0495  2.4768 -2.2736
22489SOL     OW69460   3.673   5.568   0.445  0.0176 -0.0245 -0.0527
22489SOL    HW169461   3.672   5.494   0.384  0.5139  1.0913 -1.4687
22489SOL    HW269462   3.598   5.621   0.420 -0.0779  0.1883  0.6673
22490SOL     OW69463   0.060   7.703   5.729  0.0393  0.2075 -0.4132
22490SOL    HW169464   0.124   7.773   5.715 -0.0264  0.6316  1.1662
22490SOL    HW269465   0.016   7.693   5.645  0.9451  1.1734 -1.0187
22491SOL     OW69466   2.548   1.497   0.422 -0.4599  0.1076  0.2523
22491SOL    HW169467   2.517   1.585   0.398 -0.4269 -0.0611 -0.4441
22491SOL    HW269468   2.469   1.446   0.436 -0.5254 -0.1850 -1.0115
22492SOL     OW69469   8.236   2.135   4.036 -0.0197 -0.5091  0.2949
22492SOL    HW169470   8.161   2.084   4.005 -0.3730 -0.2149  0.6525
22492SOL    HW269471   8.197   2.213   4.075  0.4533 -0.5438  0.8452
22493SOL     OW69472   7.431   6.294   1.458 -0.4208 -0.0117 -0.1959
22493SOL    HW169473   7.415   6.385   1.485 -2.2096 -0.2215 -0.4224
22493SOL    HW269474   7.386   6.285   1.374  2.1829 -0.3483 -1.6561
22494SOL     OW69475   8.806   3.152   7.756 -0.3388 -0.0156  0.0380
22494SOL    HW169476   8.810   3.060   7.731 -0.4158  0.2268 -0.9300
22494SOL    HW269477   8.873   3.194   7.702 -0.3996  0.5219  0.3672
22495SOL     OW69478   0.490   2.431   7.308 -0.0126 -0.4235  0.1907
22495SOL    HW169479   0.574   2.395   7.280 -0.0570 -3.1979  3.1009
22495SOL    HW269480   0.513   2.505   7.364  0.4025 -0.2372 -0.2203
22496SOL     OW69481   7.258   1.741   0.990 -0.3868  0.4588  0.5739
22496SOL    HW169482   7.299   1.711   0.909  1.2428  3.2709  0.1901
22496SOL    HW269483   7.165   1.749   0.968  0.0664  1.5071 -1.2098
22497SOL     OW69484   4.221   4.051   7.818 -0.5826  0.4224  0.0531
22497SOL    HW169485   4.299   4.048   7.874 -1.1987  1.1450  0.9737
22497SOL    HW269486   4.157   3.996   7.864 -1.5793  2.1842  0.8548
22498SOL     OW69487   1.112   7.663   7.460 -1.0770  0.2384 -0.0340
22498SOL    HW169488   1.176   7.689   7.394  0.1221  0.7507  1.2773
22498SOL    HW269489   1.100   7.569   7.446  1.0489 -0.1758  0.5401
22499SOL     OW69490   6.280   7.654   6.106 -0.3314  0.1113 -0.0233
22499SOL    HW169491   6.337   7.592   6.060 -0.8277 -0.5653  0.2593
22499SOL    HW269492   6.340   7.719   6.142  0.2864 -0.6763  0.4022
22500SOL     OW69493   7.877   3.164   2.546  0.3516 -0.1537 -0.1758
22500SOL    HW169494   7.844   3.184   2.633  0.3958 -1.5849  0.1888
22500SOL    HW269495   7.819   3.211   2.486  0.6893  1.3411  0.6233
22501SOL     OW69496   5.782   2.867   7.205  0.4058 -0.2374  0.6533
22501SOL    HW169497   5.836   2.789   7.192  0.1375 -0.0567 -1.9299
22501SOL    HW269498   5.844   2.940   7.205  0.6075 -0.3284  2.6560
22502SOL     OW69499   7.976   1.452   0.075 -0.9793 -0.1556  1.0196
22502SOL    HW169500   8.001   1.416   0.160 -1.1194 -1.2657  0.6045
22502SOL    HW269501   8.059   1.458   0.026 -1.0107 -0.2811  0.9511
22503SOL     OW69502   3.690   6.910   0.568 -0.7011 -0.6232  0.2742
22503SOL    HW169503   3.671   6.870   0.654 -1.5272 -1.3196 -0.2127
22503SOL    HW269504   3.665   7.002   0.579  0.2260 -0.4466  1.0947
22504SOL     OW69505   7.830   6.998   0.252 -0.5614 -0.6060 -0.2877
22504SOL    HW169506   7.875   6.943   0.317 -0.1808 -2.3339 -1.9269
22504SOL    HW269507   7.900   7.042   0.205 -0.7486 -0.6239 -0.5866
22505SOL     OW69508   5.988   6.020   5.393 -0.0515 -0.1849 -0.4394
22505SOL    HW169509   5.916   5.985   5.340  0.7482 -1.0420 -1.0024
22505SOL    HW269510   6.024   6.090   5.340 -1.0439  0.8861  0.2611
22506SOL     OW69511   8.334   7.674   5.150 -0.2765  0.0264 -0.2091
22506SOL    HW169512   8.361   7.620   5.076 -2.6087 -0.9684 -0.4290
22506SOL    HW269513   8.415   7.693   5.197  1.2771  0.6864 -2.9687
22507SOL     OW69514   8.331   0.144   4.105 -0.4053 -0.4773  0.4851
22507SOL    HW169515   8.251   0.174   4.062  0.0369  1.0386  0.6371
22507SOL    HW269516   8.362   0.071   4.052 -1.2968 -0.3811 -0.1944
22508SOL     OW69517   7.845   2.275   8.013 -0.4834 -0.2410 -0.9704
22508SOL    HW169518   7.866   2.203   7.953 -0.9497  0.2135 -1.6867
22508SOL    HW269519   7.884   2.248   8.096 -0.8131 -1.4223 -1.1767
22509SOL     OW69520   1.227   3.180   1.964  0.9106 -0.6204 -0.3273
22509SOL    HW169521   1.139   3.157   1.994  0.0240  1.9781 -0.7048
22509SOL    HW269522   1.254   3.252   2.020  0.5211  2.2215 -3.4791
22510SOL     OW69523   8.741   8.813   3.238 -0.0539  0.1156 -0.0359
22510SOL    HW169524   8.782   8.899   3.230 -1.6544  0.7686 -1.8178
22510SOL    HW269525   8.786   8.759   3.173 -0.3900  0.1564 -0.3013
22511SOL     OW69526   7.290   0.193   0.620 -0.0244  0.6899  0.2640
22511SOL    HW169527   7.256   0.124   0.676 -0.9315  0.9630  0.0521
22511SOL    HW269528   7.222   0.209   0.555  0.2345  1.6558  0.2060
22512SOL     OW69529   5.401   3.491   4.121  0.7910 -0.2540 -0.1225
22512SOL    HW169530   5.426   3.399   4.131 -0.2828 -0.7620 -1.6873
22512SOL    HW269531   5.415   3.510   4.028 -1.0360  0.5113 -0.2861
22513SOL     OW69532   5.267   2.438   3.379  0.5408  0.3025  0.0532
22513SOL    HW169533   5.267   2.485   3.296  1.6178  0.1632 -0.0362
22513SOL    HW269534   5.186   2.466   3.423 -0.0708  0.3216 -1.0622
22514SOL     OW69535   7.053   1.749   6.230  0.2040 -0.0112  0.3778
22514SOL    HW169536   6.996   1.819   6.262  0.1211  0.3993 -0.6375
22514SOL    HW269537   7.112   1.792   6.168 -0.5850 -0.9998 -1.1299
22515SOL     OW69538   1.505   2.519   8.783  0.5096 -0.7069 -0.0287
22515SOL    HW169539   1.557   2.444   8.812  2.8244  0.7887 -0.1007
22515SOL    HW269540   1.438   2.529   8.851  0.5766 -2.3832  0.3420
22516SOL     OW69541   4.247   1.015   8.888  0.2315  0.1905 -0.8621
22516SOL    HW169542   4.257   1.047   8.977 -0.1804  0.5845 -0.9540
22516SOL    HW269543   4.163   0.970   8.887  0.7999 -0.8859 -0.7408
22517SOL     OW69544   0.593   8.621   0.052  0.8206  0.0289  0.3583
22517SOL    HW169545   0.676   8.574   0.042 -0.0967 -1.7330  0.7396
22517SOL    HW269546   0.592   8.650   0.143  2.1694  2.4289 -0.3020
22518SOL     OW69547   3.473   6.139   3.892 -0.3716 -0.1305 -0.7775
22518SOL    HW169548   3.548   6.083   3.874  0.2936  0.9669 -1.5567
22518SOL    HW269549   3.496   6.223   3.852  0.1310  1.7937  3.0588
22519SOL     OW69550   7.396   6.017   6.801 -0.4644 -0.4597  0.3277
22519SOL    HW169551   7.325   5.967   6.761 -1.0021 -0.2779  1.0371
22519SOL    HW269552   7.424   5.965   6.876  1.5037 -1.4946 -1.0353
22520SOL     OW69553   1.455   6.204   2.279 -0.0786  0.4622 -0.7056
22520SOL    HW169554   1.527   6.213   2.342  0.2107  0.1642 -0.9889
22520SOL    HW269555   1.379   6.180   2.332  0.1879  0.1070 -0.4818
22521SOL     OW69556   7.789   5.231   2.629  0.0472  0.5397  0.4835
22521SOL    HW169557   7.797   5.184   2.712  1.5268 -0.2551 -0.0866
22521SOL    HW269558   7.875   5.268   2.614  0.8038 -1.9855 -2.2180
22522SOL     OW69559   6.801   6.274   0.118  1.0714 -0.4868  0.2883
22522SOL    HW169560   6.871   6.209   0.123  0.1548 -1.4313  1.2958
22522SOL    HW269561   6.746   6.244   0.045  0.8306 -0.6697  0.5416
22523SOL     OW69562   5.938   0.845   4.516  0.0090  0.1102 -0.1150
22523SOL    HW169563   5.881   0.840   4.439 -0.1102 -0.9478  0.0247
22523SOL    HW269564   5.960   0.938   4.524 -0.3853  0.3029 -1.1250
22524SOL     OW69565   6.884   5.285   2.652  0.0163  0.0578  0.2663
22524SOL    HW169566   6.935   5.259   2.729  2.9655 -0.7667 -1.7837
22524SOL    HW269567   6.888   5.209   2.594 -2.7118  0.4085 -0.4859
22525SOL     OW69568   1.988   5.539   5.020  0.1349  0.2082  0.2192
22525SOL    HW169569   2.070   5.532   5.070 -0.1710 -0.9753  0.5954
22525SOL    HW269570   1.929   5.588   5.078  0.2186  0.0509  0.4394
22526SOL     OW69571   7.366   2.853   2.360 -0.1361  0.1662 -0.6564
22526SOL    HW169572   7.352   2.947   2.353  0.2725  0.1522 -1.7502
22526SOL    HW269573   7.294   2.814   2.309 -1.3983 -0.2049  1.2867
22527SOL     OW69574   7.226   5.255   6.211 -0.0728  0.4604  0.1819
22527SOL    HW169575   7.261   5.214   6.290 -0.6921 -1.2643 -0.3927
22527SOL    HW269576   7.258   5.200   6.139 -0.6754  1.1779 -0.6605
22528SOL     OW69577   6.831   1.916   6.285  0.5945  0.1849 -0.6543
22528SOL    HW169578   6.745   1.879   6.264  1.0469 -1.2237 -0.1358
22528SOL    HW269579   6.826   1.936   6.378  1.5040 -1.9590 -0.0887
22529SOL     OW69580   8.469   1.321   1.650 -0.3898  0.2304 -0.0116
22529SOL    HW169581   8.397   1.378   1.624 -0.3812  0.0693 -0.3923
22529SOL    HW269582   8.427   1.239   1.674 -0.3293  0.1196 -0.2829
22530SOL     OW69583   0.640   2.939   4.861 -0.3047 -0.2129  0.3731
22530SOL    HW169584   0.702   2.972   4.927 -0.8521  0.3049  0.6483
22530SOL    HW269585   0.643   3.005   4.791 -0.5892 -0.1505  0.4194
22531SOL     OW69586   0.592   1.978   8.773 -0.9470 -0.3808 -0.0065
22531SOL    HW169587   0.541   2.051   8.738 -1.5112 -2.1180 -3.1156
22531SOL    HW269588   0.683   2.008   8.770 -1.1643  0.2034 -1.3119
22532SOL     OW69589   1.575   1.720   6.946 -0.0671  0.1310 -0.5248
22532SOL    HW169590   1.497   1.673   6.977  0.5897  0.7573  2.4213
22532SOL    HW269591   1.541   1.800   6.906 -0.9876 -0.6804 -1.4215
22533SOL     OW69592   5.346   3.383   8.628  0.2238  0.0772 -0.0731
22533SOL    HW169593   5.414   3.372   8.695  2.7534  0.1643 -2.4200
22533SOL    HW269594   5.314   3.294   8.613  1.9565 -0.4614 -0.9044
22534SOL     OW69595   7.915   2.632   3.876 -0.2089 -0.0284  0.4973
22534SOL    HW169596   7.992   2.582   3.848 -1.0416 -0.8904 -0.3351
22534SOL    HW269597   7.882   2.583   3.952 -0.3700 -0.0940  0.3844
22535SOL     OW69598   2.091   3.202   0.366 -0.2706 -0.1232  0.7259
22535SOL    HW169599   2.033   3.142   0.414 -0.3933 -0.1493  0.5447
22535SOL    HW269600   2.176   3.158   0.365 -0.5478 -0.6467 -0.0813
22536SOL     OW69601   0.883   0.793   7.280 -0.2132 -0.2312  0.2986
22536SOL    HW169602   0.877   0.704   7.315  0.7754 -0.6793 -0.6279
22536SOL    HW269603   0.800   0.805   7.233  0.9949 -1.9985 -2.5280
22537SOL     OW69604   4.250   6.510   5.766  0.6099 -0.5077  0.5401
22537SOL    HW169605   4.296   6.563   5.700 -2.1610  1.1278 -0.2721
22537SOL    HW269606   4.199   6.447   5.714  0.4429 -0.9877  1.2796
22538SOL     OW69607   3.017   8.662   5.333  0.7816  0.0418  0.3484
22538SOL    HW169608   2.944   8.625   5.382 -0.0070 -0.6969 -1.3224
22538SOL    HW269609   3.004   8.632   5.243  2.2285  1.2619 -0.3189
22539SOL     OW69610   6.945   8.731   1.152  0.3346 -0.0551 -0.4797
22539SOL    HW169611   6.999   8.709   1.076  0.8221  2.7535 -1.0359
22539SOL    HW269612   6.881   8.794   1.119 -0.9927 -0.5623  0.9750
22540SOL     OW69613   5.467   8.036   1.753 -0.1051  0.0621  0.5531
22540SOL    HW169614   5.448   8.057   1.661  1.2462 -0.7685  0.0445
22540SOL    HW269615   5.562   8.050   1.761  0.1166 -1.5664  1.3099
22541SOL     OW69616   7.428   4.209   7.455  0.7202  0.3824 -0.4677
22541SOL    HW169617   7.370   4.266   7.506 -0.3409 -0.7496 -0.3771
22541SOL    HW269618   7.397   4.217   7.365 -1.2991 -2.1331 -0.1017
22542SOL     OW69619   5.263   1.540   0.927  0.5988  0.6040  0.4490
22542SOL    HW169620   5.328   1.528   0.858  0.1363  0.2634  0.0652
22542SOL    HW269621   5.193   1.478   0.906 -0.5986  2.0654 -0.0483
22543SOL     OW69622   6.477   7.418   6.429  0.5954 -0.6339  0.0487
22543SOL    HW169623   6.553   7.475   6.430  0.5218 -0.3434  3.7771
22543SOL    HW269624   6.407   7.470   6.470 -1.1828 -1.4625 -1.7394
22544SOL     OW69625   6.937   4.483   5.611 -0.2155  0.5609 -0.0041
22544SOL    HW169626   6.842   4.470   5.603  0.1305 -3.5657  0.6752
22544SOL    HW269627   6.966   4.415   5.672  3.5496 -0.1899 -2.2981
22545SOL     OW69628   6.722   4.107   7.170  0.5314 -0.0514 -0.3466
22545SOL    HW169629   6.809   4.143   7.155  1.2057 -1.7157 -0.7262
22545SOL    HW269630   6.714   4.038   7.104 -1.2811  0.3847 -0.6300
22546SOL     OW69631   2.847   2.845   8.552  0.1964 -0.2077 -0.5935
22546SOL    HW169632   2.862   2.751   8.547  2.2242 -0.0989  1.6743
22546SOL    HW269633   2.934   2.884   8.537 -0.7928  1.4112 -2.6316
22547SOL     OW69634   3.792   3.163   4.681 -0.0527  0.4201  0.0084
22547SOL    HW169635   3.829   3.081   4.714 -0.8060  0.4825  1.0436
22547SOL    HW269636   3.835   3.231   4.733 -1.2998  0.5144  0.9563
22548SOL     OW69637   8.160   6.495   6.466  0.2824 -0.1825  0.6453
22548SOL    HW169638   8.204   6.502   6.551  1.3637 -1.2661  0.2029
22548SOL    HW269639   8.078   6.543   6.478  1.3403  1.4853  1.6483
22549SOL     OW69640   4.445   0.433   3.759 -0.0138  0.4410 -0.5402
22549SOL    HW169641   4.361   0.450   3.801  0.1158 -0.3670  0.0704
22549SOL    HW269642   4.498   0.391   3.827  0.1369 -1.0803 -1.5536
22550SOL     OW69643   3.912   2.961   6.483  0.2891 -0.8590 -0.6767
22550SOL    HW169644   3.968   3.027   6.523 -0.3848 -0.1207 -0.9318
22550SOL    HW269645   3.961   2.879   6.493  3.0253  0.1660 -3.7467
22551SOL     OW69646   0.050   5.272   3.731 -0.1203  0.3986 -0.3400
22551SOL    HW169647  -0.045   5.264   3.737  0.0055 -0.6865  0.9188
22551SOL    HW269648   0.066   5.317   3.649 -1.6951 -0.1565 -0.9882
22552SOL     OW69649   5.689   8.738   3.351 -0.7315 -0.5002 -0.0344
22552SOL    HW169650   5.633   8.774   3.283 -0.6554  0.7354  0.5261
22552SOL    HW269651   5.752   8.807   3.370 -0.2397 -1.1259  0.7142
22553SOL     OW69652   0.304   5.260   2.363 -0.2226 -0.4584  0.0461
22553SOL    HW169653   0.379   5.201   2.374  0.8226  0.7358 -0.5373
22553SOL    HW269654   0.257   5.254   2.446 -0.3412 -2.3459 -0.0958
22554SOL     OW69655   2.562   1.245   6.881 -0.6532  0.6469  0.1507
22554SOL    HW169656   2.603   1.321   6.842 -1.3323  0.3406 -1.2357
22554SOL    HW269657   2.475   1.276   6.907 -1.8976 -0.1347 -2.6348
22555SOL     OW69658   0.285   5.549   6.015 -0.1285 -0.0207 -0.1814
22555SOL    HW169659   0.249   5.638   6.023  0.4498  0.3300 -1.2797
22555SOL    HW269660   0.349   5.542   6.086 -0.2845  0.3781  0.0026
22556SOL     OW69661   4.959   6.513   8.421  0.5051  0.2378  0.2361
22556SOL    HW169662   4.971   6.593   8.371 -2.0070  0.5100 -0.0490
22556SOL    HW269663   5.047   6.488   8.448  1.7487  1.1967 -2.5777
22557SOL     OW69664   7.048   6.095   3.390 -0.2678  0.5424 -0.0567
22557SOL    HW169665   7.073   6.032   3.458  0.0576  1.3529  0.6007
22557SOL    HW269666   6.952   6.092   3.389 -0.2409 -0.2980 -0.3603
22558SOL     OW69667   2.445   6.541   3.002  0.2138 -0.0562 -0.3101
22558SOL    HW169668   2.378   6.494   3.051  0.7561 -0.5464 -0.0268
22558SOL    HW269669   2.397   6.582   2.929 -0.1555 -1.7571 -1.0705
22559SOL     OW69670   7.884   4.558   6.889  0.0861  0.0539  0.4391
22559SOL    HW169671   7.940   4.553   6.812 -1.1257  0.3293 -0.4812
22559SOL    HW269672   7.942   4.534   6.962  1.3428  0.1488 -0.4925
22560SOL     OW69673   1.168   4.736   6.765  0.3531 -0.2732 -0.0581
22560SOL    HW169674   1.205   4.659   6.808 -1.0933 -0.6084  0.6568
22560SOL    HW269675   1.093   4.761   6.820 -0.5334  0.3185 -1.4598
22561SOL     OW69676   0.857   8.752   4.970 -0.1438  0.4563 -0.4999
22561SOL    HW169677   0.809   8.780   4.892  0.1973 -0.7639 -1.1726
22561SOL    HW269678   0.792   8.759   5.041 -1.2034 -0.6655 -1.3027
22562SOL     OW69679   8.721   2.053   3.482 -0.5170  0.0673  0.3684
22562SOL    HW169680   8.727   2.056   3.578 -1.3234  0.9884  0.4054
22562SOL    HW269681   8.768   2.131   3.453  0.9525 -0.9364 -0.0856
22563SOL     OW69682   4.015   6.104   3.382  0.3820 -0.2166 -0.2066
22563SOL    HW169683   3.998   6.064   3.468  1.8355  1.8062  1.1372
22563SOL    HW269684   3.931   6.142   3.356 -0.1912 -1.2475  0.0918
22564SOL     OW69685   8.184   4.472   7.408 -0.5758 -0.2022  0.2774
22564SOL    HW169686   8.132   4.450   7.485  2.1550 -2.3753  1.6726
22564SOL    HW269687   8.213   4.388   7.374  1.8931  0.8591 -0.4722
22565SOL     OW69688   1.772   3.670   6.452 -0.2139  0.1634  0.1179
22565SOL    HW169689   1.823   3.626   6.520  0.2443  0.2173 -0.1834
22565SOL    HW269690   1.686   3.683   6.491 -0.6447 -1.8109 -0.0775
22566SOL     OW69691   6.208   8.350   1.538  0.4794  0.5545  0.7603
22566SOL    HW169692   6.164   8.291   1.598  0.1306 -0.3696 -0.3621
22566SOL    HW269693   6.296   8.360   1.574 -0.1931  1.3238  2.2788
22567SOL     OW69694   1.516   5.555   3.615 -0.1085  0.0217  0.5276
22567SOL    HW169695   1.466   5.615   3.560  0.9957 -0.1191 -0.6699
22567SOL    HW269696   1.597   5.539   3.566  0.2817 -1.2379  1.5308
22568SOL     OW69697   0.990   6.703   3.060  0.1615 -0.0031  0.1615
22568SOL    HW169698   1.009   6.772   3.123  0.0805  1.3393 -1.2120
22568SOL    HW269699   0.946   6.748   2.988  0.4923 -1.4074 -0.9690
22569SOL     OW69700   0.705   0.433   3.236  0.5286 -0.3577 -0.2457
22569SOL    HW169701   0.623   0.427   3.187  0.1517  1.7098  0.0356
22569SOL    HW269702   0.769   0.387   3.181 -0.7042 -1.6937 -0.6398
22570SOL     OW69703   6.598   0.911   3.103 -0.1327  0.7914  0.6687
22570SOL    HW169704   6.522   0.966   3.123 -0.1563  1.2898 -0.6659
22570SOL    HW269705   6.563   0.840   3.048  0.3674  1.1078 -0.0860
22571SOL     OW69706   8.827   5.760   2.960 -0.2697  0.2815 -0.5425
22571SOL    HW169707   8.738   5.793   2.967 -0.6130 -0.4924 -1.1617
22571SOL    HW269708   8.882   5.838   2.964 -0.7985  0.6073  2.3083
22572SOL     OW69709   5.082   3.470   3.207 -0.4294 -0.6565 -0.7098
22572SOL    HW169710   5.041   3.384   3.216 -1.7734 -0.3349 -3.0784
22572SOL    HW269711   5.031   3.514   3.139  2.0299  0.9260 -1.6493
22573SOL     OW69712   4.396   8.243   1.692 -0.9457  0.1040 -0.3889
22573SOL    HW169713   4.424   8.257   1.783  0.7074  2.0334 -1.1426
22573SOL    HW269714   4.314   8.291   1.685 -2.2798 -1.8680  0.6076
22574SOL     OW69715   4.057   0.062   8.537 -0.6434 -0.1481 -0.4514
22574SOL    HW169716   4.040   0.105   8.453 -1.1411  2.1702  0.7467
22574SOL    HW269717   3.978   0.079   8.589  0.8576  1.3325  1.5411
22575SOL     OW69718   8.038   1.625   4.749 -0.6845  0.3303 -0.3090
22575SOL    HW169719   7.989   1.545   4.768  0.1749  0.2772  2.0479
22575SOL    HW269720   8.018   1.683   4.823  1.1368  1.0896 -0.3570
22576SOL     OW69721   4.346   2.624   5.151 -0.3733  0.1668 -0.4336
22576SOL    HW169722   4.298   2.705   5.171 -0.4624  0.3585 -1.4031
22576SOL    HW269723   4.281   2.565   5.113  0.2145  0.6086 -2.2354
22577SOL     OW69724   8.621   7.937   6.956  0.0057  0.0459 -0.0943
22577SOL    HW169725   8.637   7.843   6.958  0.7916  0.1699  1.7036
22577SOL    HW269726   8.534   7.947   6.994  0.1485  0.0598  0.2388
22578SOL     OW69727   3.596   2.016   1.941 -0.3207 -0.2222 -0.4837
22578SOL    HW169728   3.589   2.084   2.008 -2.0464 -0.5481 -0.2986
22578SOL    HW269729   3.562   1.937   1.983 -0.6373 -0.6320 -1.4840
22579SOL     OW69730   7.078   3.174   7.253 -0.0554  0.1436  0.2647
22579SOL    HW169731   7.074   3.229   7.331 -1.1841 -0.1030  0.3848
22579SOL    HW269732   7.172   3.171   7.231  0.3313 -0.1577  1.8602
22580SOL     OW69733   1.751   0.378   6.250  0.0137  0.8276  0.1800
22580SOL    HW169734   1.753   0.349   6.342  1.1835  0.5078  0.0687
22580SOL    HW269735   1.800   0.311   6.203 -1.0790  0.6940 -0.7799
22581SOL     OW69736   3.309   3.446   4.949 -0.1212  0.1961  0.0423
22581SOL    HW169737   3.331   3.402   5.031 -0.9818  1.6186  1.1084
22581SOL    HW269738   3.374   3.416   4.887 -0.0723 -1.7535  0.9550
22582SOL     OW69739   3.702   6.936   0.874 -0.1879  0.0862 -0.1807
22582SOL    HW169740   3.670   6.856   0.915 -1.7434  1.1406  0.7999
22582SOL    HW269741   3.651   7.006   0.915  1.6680  1.6738 -0.4238
22583SOL     OW69742   8.870   0.819   8.203 -0.3458 -0.0442  0.5265
22583SOL    HW169743   8.843   0.759   8.273 -0.2985 -0.4238  0.2255
22583SOL    HW269744   8.802   0.885   8.200  0.9444  1.5226  2.7297
22584SOL     OW69745   8.585   8.369   8.789  0.6375  0.5547  0.3555
22584SOL    HW169746   8.607   8.278   8.809 -0.6431  0.3390  0.9421
22584SOL    HW269747   8.621   8.384   8.702 -0.8203 -1.1561 -0.6169
22585SOL     OW69748   5.819   3.644   1.031 -0.2348 -0.5121 -0.6575
22585SOL    HW169749   5.831   3.649   0.936  1.5180 -1.0378 -0.4938
22585SOL    HW269750   5.795   3.553   1.048  0.5510 -0.7006 -0.5098
22586SOL     OW69751   1.859   0.299   4.650 -0.2284 -0.2630 -0.4322
22586SOL    HW169752   1.793   0.231   4.636  0.1531 -0.7745  0.1927
22586SOL    HW269753   1.875   0.298   4.744  1.6700 -1.1382 -0.6998
22587SOL     OW69754   8.647   0.214   2.496  0.0065 -0.0949  0.5871
22587SOL    HW169755   8.640   0.308   2.480  0.5319  0.3499  2.6913
22587SOL    HW269756   8.563   0.178   2.468 -0.9345  1.2925  1.5289
22588SOL     OW69757   8.694   5.676   6.261 -0.0993  0.0254  0.4914
22588SOL    HW169758   8.763   5.722   6.307  0.0272  0.2232  0.1041
22588SOL    HW269759   8.722   5.584   6.261  0.7690  0.2704 -0.7300
22589SOL     OW69760   4.710   4.827   1.360  0.3432 -0.0231 -0.0393
22589SOL    HW169761   4.704   4.908   1.411 -1.4641 -0.2187  0.1356
22589SOL    HW269762   4.794   4.834   1.314 -0.4376  2.7521 -1.3201
22590SOL     OW69763   2.115   0.366   5.341 -0.0309  0.0856 -0.0925
22590SOL    HW169764   2.027   0.332   5.327  0.1861 -0.0900 -1.0742
22590SOL    HW269765   2.165   0.290   5.372 -0.0292  0.0003 -0.3086
22591SOL     OW69766   8.037   5.334   2.531  0.4373 -0.4003 -0.2610
22591SOL    HW169767   7.988   5.341   2.449  1.2405 -1.2129 -0.8301
22591SOL    HW269768   8.095   5.410   2.531  0.8210 -0.6866 -0.7204
22592SOL     OW69769   3.436   1.889   1.768 -0.8065  0.5175  0.5813
22592SOL    HW169770   3.386   1.852   1.841 -1.0245  0.0958  0.2268
22592SOL    HW269771   3.488   1.959   1.807 -2.0811  1.3426  0.8786
22593SOL     OW69772   3.721   8.504   0.349  0.2441  0.1965  0.0142
22593SOL    HW169773   3.772   8.428   0.375 -0.0515  0.1396  0.4460
22593SOL    HW269774   3.740   8.570   0.416  1.7297  1.0724 -1.1948
22594SOL     OW69775   8.402   2.899   0.965  0.2728 -0.1268  1.0295
22594SOL    HW169776   8.422   2.812   0.932  0.5139 -0.2573  1.5091
22594SOL    HW269777   8.455   2.907   1.045 -0.4485  0.1011  1.4971
22595SOL     OW69778   1.329   8.788   0.990 -0.1965 -0.2897  0.4349
22595SOL    HW169779   1.262   8.856   0.988  0.2808  0.1604 -0.2649
22595SOL    HW269780   1.349   8.777   1.083 -1.3150 -0.5186  0.6756
22596SOL     OW69781   8.546   6.061   2.646 -0.1711 -0.7308 -0.6528
22596SOL    HW169782   8.455   6.033   2.659 -0.1996 -0.3121  0.0624
22596SOL    HW269783   8.558   6.134   2.706  0.2331  0.1194 -1.7418
22597SOL     OW69784   6.976   8.591   6.434  0.3077 -0.4313 -1.1408
22597SOL    HW169785   7.038   8.524   6.461 -0.7249 -0.8152  0.4444
22597SOL    HW269786   6.894   8.543   6.419 -0.3594  0.3965 -0.3100
22598SOL     OW69787   7.627   5.671   5.283  0.0902  0.0207 -0.2893
22598SOL    HW169788   7.718   5.690   5.259  0.0502 -0.1904 -0.6216
22598SOL    HW269789   7.580   5.751   5.261 -0.3862 -0.9601 -3.3699
22599SOL     OW69790   7.312   6.166   5.262  0.2429  0.2305 -0.0184
22599SOL    HW169791   7.230   6.158   5.214  0.5884 -0.4676 -0.5068
22599SOL    HW269792   7.376   6.194   5.197  0.0958  2.3953  0.6739
22600SOL     OW69793   7.480   8.423   4.179  0.0403 -0.0757 -0.1551
22600SOL    HW169794   7.517   8.500   4.136  0.5676 -0.1616  0.1388
22600SOL    HW269795   7.507   8.431   4.271 -2.0385  0.7037  0.4353
22601SOL     OW69796   2.370   1.338   1.377 -0.0099  0.6020 -0.0945
22601SOL    HW169797   2.437   1.325   1.310 -1.7054  0.4488 -1.8343
22601SOL    HW269798   2.320   1.257   1.377  0.0987  0.5128  1.5656
22602SOL     OW69799   0.137   1.273   3.841  0.1275 -0.3427 -0.1379
22602SOL    HW169800   0.048   1.294   3.814  0.0717  0.4259  0.6076
22602SOL    HW269801   0.157   1.336   3.910  0.4140 -1.9709  1.3276
22603SOL     OW69802   0.179   6.553   7.045 -0.8065 -0.1601 -0.0267
22603SOL    HW169803   0.140   6.616   7.106 -1.0545 -0.4427  0.1131
22603SOL    HW269804   0.110   6.488   7.031 -0.1800 -1.0153  0.7156
22604SOL     OW69805   6.058   3.373   3.015  0.4481  0.1846 -0.6614
22604SOL    HW169806   5.968   3.381   3.049  1.3802  0.6802  1.9564
22604SOL    HW269807   6.087   3.287   3.043  1.2068  0.5312 -0.3635
22605SOL     OW69808   0.772   4.162   5.087 -0.1307 -0.2588  0.2295
22605SOL    HW169809   0.830   4.096   5.126 -0.4480 -0.4245  0.4162
22605SOL    HW269810   0.830   4.237   5.072  0.1375 -0.4243  0.4110
22606SOL     OW69811   2.482   1.814   8.314  0.0206  0.2961 -0.3525
22606SOL    HW169812   2.397   1.807   8.270 -0.0440  0.7503 -0.3116
22606SOL    HW269813   2.539   1.755   8.266  0.2124  1.5091 -1.6899
22607SOL     OW69814   7.857   6.663   3.246 -0.0664  0.7243 -0.4130
22607SOL    HW169815   7.844   6.687   3.338  0.8146  1.0646 -0.3703
22607SOL    HW269816   7.790   6.713   3.199 -0.4997  0.5708  0.0405
22608SOL     OW69817   5.998   5.881   8.826  0.2989 -0.6051  0.4826
22608SOL    HW169818   5.951   5.964   8.817  1.2938 -0.1783 -1.5180
22608SOL    HW269819   6.086   5.907   8.855  0.1203 -1.1434  1.5494
22609SOL     OW69820   6.083   3.318   5.600 -0.3657  0.5516  0.0158
22609SOL    HW169821   6.014   3.363   5.551 -0.1390  1.4497  0.4800
22609SOL    HW269822   6.116   3.385   5.660 -0.0692 -0.2812  0.8009
22610SOL     OW69823   6.975   0.607   8.397  0.1862 -0.7886 -0.5123
22610SOL    HW169824   6.941   0.693   8.422 -0.0999 -0.7037 -1.1814
22610SOL    HW269825   7.068   0.611   8.419 -0.1681 -0.9355  1.0956
22611SOL     OW69826   6.619   1.812   5.350  0.3093 -0.2106 -1.3251
22611SOL    HW169827   6.554   1.873   5.385  2.6502  1.1430  1.0937
22611SOL    HW269828   6.698   1.865   5.339  2.5451 -2.6845  1.0855
22612SOL     OW69829   1.305   3.574   8.798  0.6955  0.3389 -0.2251
22612SOL    HW169830   1.227   3.560   8.852  0.0312 -1.5873 -1.5749
22612SOL    HW269831   1.272   3.618   8.719  0.7130 -1.5164 -1.3170
22613SOL     OW69832   6.538   8.681   5.290  0.1689  0.0111 -0.8401
22613SOL    HW169833   6.630   8.709   5.285  0.1491  0.0039 -1.3380
22613SOL    HW269834   6.491   8.758   5.322  0.5637 -0.4824  1.0692
22614SOL     OW69835   7.625   7.287   8.380 -0.0839 -0.7736 -0.2219
22614SOL    HW169836   7.716   7.265   8.401  0.0363 -1.8444 -1.6571
22614SOL    HW269837   7.574   7.224   8.431  0.0434 -1.1153 -0.5145
22615SOL     OW69838   0.310   6.484   1.633  0.0801  0.2226 -0.0747
22615SOL    HW169839   0.300   6.578   1.643  0.3525  0.3630 -1.0441
22615SOL    HW269840   0.313   6.470   1.538 -1.4672 -0.9224  0.0095
22616SOL     OW69841   5.165   7.661   5.768  0.3807 -0.6777 -0.0801
22616SOL    HW169842   5.179   7.730   5.832  1.3136  0.6773 -1.6392
22616SOL    HW269843   5.081   7.682   5.728  0.1617 -1.0752  0.1653
22617SOL     OW69844   8.287   0.426   5.554 -0.1915  0.1979  0.2344
22617SOL    HW169845   8.366   0.400   5.602 -1.6020 -2.2378  1.4414
22617SOL    HW269846   8.215   0.397   5.610 -1.9652  1.5545 -1.2334
22618SOL     OW69847   4.963   0.429   8.480  0.4211 -0.2859 -0.2326
22618SOL    HW169848   4.944   0.451   8.388 -0.2646  0.5062  0.0853
22618SOL    HW269849   4.918   0.346   8.494  0.2957 -0.2746 -0.5392
22619SOL     OW69850   5.441   2.005   1.101 -0.5603  0.7478  0.2719
22619SOL    HW169851   5.448   2.058   1.180 -1.3933  0.0839  0.8130
22619SOL    HW269852   5.367   1.946   1.118 -0.1217 -0.0866 -0.6056
22620SOL     OW69853   5.767   8.450   1.186 -0.5692  0.3508  0.0433
22620SOL    HW169854   5.758   8.381   1.120  1.1136 -0.1418  0.2883
22620SOL    HW269855   5.823   8.412   1.253 -2.0691  0.9145  1.7085
22621SOL     OW69856   8.276   6.824   6.992  0.1936  1.0435  0.3545
22621SOL    HW169857   8.331   6.748   7.009  1.0093  0.9909 -2.1998
22621SOL    HW269858   8.315   6.867   6.917 -1.9530  2.3136 -0.1371
22622SOL     OW69859   4.727   0.324   7.402  0.2001 -0.0162 -0.1893
22622SOL    HW169860   4.743   0.369   7.319 -1.3350  0.7244 -0.1121
22622SOL    HW269861   4.681   0.388   7.455 -1.4582 -1.4360  0.1667
22623SOL     OW69862   2.416   8.764   3.994  0.1659 -0.4503  0.0544
22623SOL    HW169863   2.456   8.783   3.909  1.8243  1.5129  1.1713
22623SOL    HW269864   2.447   8.676   4.016  1.8701  0.0185 -0.2945
22624SOL     OW69865   2.514   8.764   8.077 -0.0260 -0.6449  0.5304
22624SOL    HW169866   2.492   8.710   8.152 -1.6632  0.3856  0.8286
22624SOL    HW269867   2.464   8.726   8.004  0.4731 -0.8077  0.2704
22625SOL     OW69868   1.828   8.297   1.713 -0.0415  0.2395 -0.2946
22625SOL    HW169869   1.874   8.347   1.647  0.4146  0.2879  0.0589
22625SOL    HW269870   1.742   8.338   1.719  0.5027  1.3277  0.3747
22626SOL     OW69871   1.690   2.096   3.685 -0.1041  0.0884  0.1930
22626SOL    HW169872   1.751   2.102   3.611 -0.5512  0.3313 -0.1605
22626SOL    HW269873   1.630   2.169   3.672 -0.6274 -0.2968  0.3921
22627SOL     OW69874   6.571   2.190   7.237  0.3177  0.5618  0.5665
22627SOL    HW169875   6.584   2.284   7.248  1.4731  0.5002 -0.1143
22627SOL    HW269876   6.509   2.183   7.164  0.8354  0.7882  0.1001
22628SOL     OW69877   8.090   8.092   4.122  0.2596 -0.5323 -0.5046
22628SOL    HW169878   8.160   8.130   4.176  0.6178 -1.0957 -0.5630
22628SOL    HW269879   8.135   8.029   4.065 -0.5604 -2.6792  1.0822
22629SOL     OW69880   7.751   3.495   0.091 -0.4131 -0.1276 -0.2232
22629SOL    HW169881   7.671   3.513   0.141  0.1043  1.5861  0.0627
22629SOL    HW269882   7.792   3.423   0.138 -0.3499  0.9016  1.4085
22630SOL     OW69883   7.147   1.403   6.019 -0.9038 -0.3881 -0.1679
22630SOL    HW169884   7.190   1.406   6.105 -0.7065  0.9745 -0.2897
22630SOL    HW269885   7.069   1.350   6.033 -0.8312 -0.2481  0.8417
22631SOL     OW69886   0.985   7.968   0.800 -0.2488  0.3647  0.0569
22631SOL    HW169887   1.064   7.952   0.748 -0.3181  0.3677 -0.0507
22631SOL    HW269888   1.004   8.048   0.849 -0.6254  1.0463 -0.8641
22632SOL     OW69889   5.545   3.945   5.564  0.1870  0.3542  0.1375
22632SOL    HW169890   5.564   3.983   5.478  1.4114  0.8731  0.6144
22632SOL    HW269891   5.601   3.867   5.568 -2.6090 -1.8843 -1.0128
22633SOL     OW69892   4.431   3.638   6.225 -0.2159  0.0321  0.7174
22633SOL    HW169893   4.484   3.673   6.153 -0.8477  0.6392  0.5371
22633SOL    HW269894   4.462   3.684   6.303 -0.7756  0.7171  0.5422
22634SOL     OW69895   1.502   2.904   1.426 -0.8185 -0.4354  0.0420
22634SOL    HW169896   1.492   2.999   1.425 -0.6636 -0.4206 -0.1992
22634SOL    HW269897   1.438   2.872   1.362 -1.8375 -0.5938  1.1051
22635SOL     OW69898   5.008   7.674   2.751 -0.8483 -0.1679  0.1935
22635SOL    HW169899   5.073   7.701   2.687 -2.4726  1.6304 -0.7998
22635SOL    HW269900   4.950   7.615   2.704 -0.0830 -1.6563  1.0367
22636SOL     OW69901   2.100   5.383   2.075 -0.4323 -0.9179 -0.2503
22636SOL    HW169902   2.071   5.400   2.164  1.4934  1.1221  0.0798
22636SOL    HW269903   2.155   5.306   2.082 -1.0532 -1.3424  0.1185
22637SOL     OW69904   8.283   8.657   7.387 -0.2282 -0.3721  0.5581
22637SOL    HW169905   8.221   8.705   7.441  0.6069  0.1977  1.0305
22637SOL    HW269906   8.353   8.632   7.448  0.3993 -0.3047 -0.1234
22638SOL     OW69907   5.414   8.194   7.162  0.0803  0.1113  0.5138
22638SOL    HW169908   5.348   8.228   7.101  0.6334 -0.5952 -0.5147
22638SOL    HW269909   5.376   8.111   7.194  0.2193 -0.0144  0.3547
22639SOL     OW69910   7.392   2.226   8.727  0.2877 -0.0882 -0.0073
22639SOL    HW169911   7.476   2.257   8.760  0.4060  0.6481 -0.9717
22639SOL    HW269912   7.374   2.280   8.650 -1.8248  0.8481  1.0516
22640SOL     OW69913   6.733   7.614   1.675 -0.2054 -0.9563  0.5559
22640SOL    HW169914   6.751   7.523   1.652  0.5495 -0.7365  0.2578
22640SOL    HW269915   6.813   7.645   1.716 -0.4286 -0.3990  0.5811
22641SOL     OW69916   0.798   0.355   3.747  0.0049  0.2421 -0.1613
22641SOL    HW169917   0.817   0.416   3.676 -1.2907 -0.7504 -1.4211
22641SOL    HW269918   0.752   0.283   3.705 -1.4228 -0.0695  1.7857
22642SOL     OW69919   8.117   0.956   7.118  0.1212  0.3732  0.3690
22642SOL    HW169920   8.172   1.035   7.122  0.6825 -0.0518  1.6299
22642SOL    HW269921   8.040   0.979   7.170  0.2441  0.1280  0.6596
22643SOL     OW69922   1.516   3.909   4.227 -0.0256  0.1095  0.1710
22643SOL    HW169923   1.461   3.850   4.279  1.8421 -1.2487  0.7261
22643SOL    HW269924   1.482   3.900   4.138  0.6652 -2.4914  0.0943
22644SOL     OW69925   6.673   1.650   8.169 -0.1756  0.0797 -0.3664
22644SOL    HW169926   6.605   1.586   8.192  0.3155 -0.4519 -0.3763
22644SOL    HW269927   6.754   1.610   8.200  0.0975  0.8659 -0.0514
22645SOL     OW69928   1.179   1.525   3.589  0.2505  0.0460  0.4643
22645SOL    HW169929   1.104   1.575   3.556 -0.6988 -0.5496  1.6552
22645SOL    HW269930   1.200   1.566   3.673  1.1887  0.1280  0.1947
22646SOL     OW69931   8.454   6.834   5.460 -0.2224  0.3311 -0.5084
22646SOL    HW169932   8.501   6.885   5.527  0.2566 -0.4671 -0.2271
22646SOL    HW269933   8.508   6.841   5.382  0.7072 -1.0733 -0.0268
22647SOL     OW69934   4.447   8.174   8.759  0.0728 -0.8261 -0.3578
22647SOL    HW169935   4.422   8.126   8.680  2.4260  1.0852 -2.4176
22647SOL    HW269936   4.494   8.109   8.812  1.9337 -1.2615 -2.4113
22648SOL     OW69937   4.818   7.380   0.106  0.2151  0.8849  0.0881
22648SOL    HW169938   4.735   7.424   0.121 -0.1598  0.4018 -0.5361
22648SOL    HW269939   4.876   7.448   0.073 -0.7026  0.7257 -2.0444
22649SOL     OW69940   4.655   7.927   8.743 -0.1217 -0.2337 -0.1785
22649SOL    HW169941   4.749   7.906   8.743  0.1144  0.6850 -1.4405
22649SOL    HW269942   4.619   7.872   8.673 -0.3957 -0.0814 -0.1574
22650SOL     OW69943   2.452   0.882   8.107  0.8369  0.3053 -0.1324
22650SOL    HW169944   2.435   0.976   8.111  0.3593  0.2724 -0.9637
22650SOL    HW269945   2.467   0.865   8.014 -0.7290 -0.7025 -0.2386
22651SOL     OW69946   8.063   8.792   7.538  0.0291 -0.8717 -0.4140
22651SOL    HW169947   7.988   8.850   7.528  0.3714 -0.4720 -0.6927
22651SOL    HW269948   8.025   8.708   7.564 -0.3346  0.0581  2.3868
22652SOL     OW69949   6.027   2.757   2.727  0.4584 -0.0513 -0.0269
22652SOL    HW169950   6.053   2.828   2.668 -0.2407 -1.3230 -1.9529
22652SOL    HW269951   6.037   2.794   2.815  0.5817  2.2505 -0.9446
22653SOL     OW69952   0.814   2.125   5.433  0.3885  0.2054  0.1490
22653SOL    HW169953   0.790   2.042   5.391 -1.6169  0.3131  0.9664
22653SOL    HW269954   0.794   2.191   5.367  1.0418  0.1100 -0.1473
22654SOL     OW69955   8.329   4.984   8.571 -0.2074 -0.1662  0.5108
22654SOL    HW169956   8.328   5.035   8.651  0.4902  0.9284 -0.1430
22654SOL    HW269957   8.422   4.966   8.555 -0.3777 -0.8434  0.2411
22655SOL     OW69958   0.395   5.770   8.773  0.1615 -0.2251  0.2932
22655SOL    HW169959   0.308   5.788   8.807 -0.3386  0.6774 -1.3922
22655SOL    HW269960   0.382   5.754   8.680  2.0058  1.9027 -0.4014
22656SOL     OW69961   6.905   7.904   2.670  0.3555  0.0342  0.3282
22656SOL    HW169962   6.850   7.978   2.697 -0.0800 -0.2769  0.3102
22656SOL    HW269963   6.908   7.910   2.575  3.7427  2.4668  0.4025
22657SOL     OW69964   7.592   3.799   3.281  0.2158  1.3498  0.1467
22657SOL    HW169965   7.656   3.851   3.234  1.8196 -0.6513 -0.0275
22657SOL    HW269966   7.641   3.722   3.310 -2.2946 -0.7671 -0.8392
22658SOL     OW69967   8.797   4.183   6.607 -0.0932  0.0877  0.6640
22658SOL    HW169968   8.731   4.249   6.585  2.0186  2.1208  0.0408
22658SOL    HW269969   8.795   4.121   6.534 -1.2839  0.1089  0.6613
22659SOL     OW69970   0.923   0.856   5.051  0.0811  0.3247 -0.0587
22659SOL    HW169971   0.831   0.878   5.060  0.4389  1.7416  0.3350
22659SOL    HW269972   0.936   0.845   4.956 -0.3407  0.8161 -0.1780
22660SOL     OW69973   8.701   4.698   4.760  0.3287  0.1252  0.2368
22660SOL    HW169974   8.710   4.632   4.829  0.5368  0.6543  0.7253
22660SOL    HW269975   8.640   4.762   4.796  0.9534  0.7541  0.2120
22661SOL     OW69976   6.052   4.078   5.538 -0.2779 -0.3862  0.2160
22661SOL    HW169977   5.995   4.018   5.490  0.7476 -1.1648 -0.0460
22661SOL    HW269978   6.057   4.156   5.482 -2.5213  0.4748  1.0699
22662SOL     OW69979   7.041   5.276   2.337  0.7374 -0.4603 -0.6405
22662SOL    HW169980   7.006   5.264   2.249  0.4386  0.0516 -0.5972
22662SOL    HW269981   7.002   5.358   2.368  0.4012 -0.9140  0.1843
22663SOL     OW69982   1.213   1.034   0.011  0.1533 -0.0414  0.5337
22663SOL    HW169983   1.217   1.130   0.010  2.8903 -0.0432  1.1382
22663SOL    HW269984   1.195   1.013   0.103  4.6394  0.0301  1.6654
22664SOL     OW69985   6.774   1.838   4.624 -0.7420 -0.2563 -0.5605
22664SOL    HW169986   6.761   1.922   4.669  1.1450  0.7620 -1.7648
22664SOL    HW269987   6.699   1.831   4.566 -1.8318 -0.2905  0.8119
22665SOL     OW69988   6.255   7.870   8.124 -0.0194 -0.0131 -0.2055
22665SOL    HW169989   6.173   7.834   8.157  0.1312  0.8340  1.1968
22665SOL    HW269990   6.275   7.818   8.047 -0.8378 -1.5509  0.5776
22666SOL     OW69991   3.395   8.483   1.304 -0.3748 -0.0582 -0.5524
22666SOL    HW169992   3.302   8.480   1.280 -1.0996 -1.9146  2.0475
22666SOL    HW269993   3.400   8.553   1.369 -0.1842 -0.6965  0.1253
22667NA      NA69994   7.727   1.691   7.606  0.4899  0.6319  0.3052
22668NA      NA69995   2.678   0.205   6.981 -0.2783  0.7445  0.2175
22669NA      NA69996   2.683   4.489   1.425  0.1601  0.2158 -0.2553
22670NA      NA69997   0.878   0.386   7.967 -0.5971  0.2756 -0.1275
22671NA      NA69998   4.089   8.260   5.912 -0.1119  0.1970 -0.8144
22672NA      NA69999   0.559   3.201   2.089  0.1621 -0.2704 -0.0326
22673NA      NA70000   4.271   2.787   6.192 -0.1893  0.0247 -0.1380
22674NA      NA70001   0.980   0.861   2.431 -0.0549  0.1732  0.1606
22675NA      NA70002   8.199   7.526   6.177 -0.0124 -0.0865  0.2430
22676NA      NA70003   3.181   7.906   3.724 -0.4216 -0.3101  0.1120
22677NA      NA70004   6.094   8.074   6.117  0.3139  0.4114 -0.1858
22678NA      NA70005   8.536   0.685   1.223  0.2615 -0.4929 -0.1770
22679NA      NA70006   1.037   1.657   4.605  0.3848 -0.2691 -0.0108
22680NA      NA70007   8.477   7.627   2.680  0.1750 -0.2039 -0.2083
22681NA      NA70008   6.417   1.081   8.867  0.0296  0.1173 -0.0755
22682NA      NA70009   8.799   0.115   4.914 -0.5973  0.2856 -0.3412
22683NA      NA70010   4.953   1.226   0.030  0.0044  0.7961 -0.1620
22684NA      NA70011   1.563   2.706   8.689 -0.5950  0.1246 -0.3170
22685NA      NA70012   5.994   0.008   8.321 -0.6037  0.4006 -0.1527
22686NA      NA70013   7.287   6.125   8.822  0.4421 -0.3275  0.0228
22687NA      NA70014   5.554   7.031   7.977  0.1864 -0.2970  0.2321
22688NA      NA70015   1.137   7.842   1.774  0.1073 -0.2670 -0.0055
22689NA      NA70016   7.927   4.204   4.381  0.0648  0.1064 -0.0895
22690NA      NA70017   8.057   2.401   8.709  0.2630 -0.2006 -0.5526
22691NA      NA70018   2.431   5.840   6.356 -0.2737 -0.3929 -0.0334
22692NA      NA70019   0.462   1.082   2.413  0.0313  0.1842  0.3221
22693NA      NA70020   6.102   7.693   4.435  0.0320  0.2105 -0.4517
22694NA      NA70021   2.333   4.063   6.526 -0.0210 -0.3259  0.3565
22695NA      NA70022   1.767   4.353   3.506  0.3697 -0.0697  0.0069
22696NA      NA70023   0.882   1.645   1.868  0.0258 -0.0455  0.0424
22697NA      NA70024   7.451   8.140   1.525 -0.0969  0.0167  0.1230
22698NA      NA70025   7.343   6.325   7.971  0.0368 -0.1818 -0.3733
22699NA      NA70026   0.760   8.255   7.340  0.0647 -0.0625  0.2249
22700NA      NA70027   5.736   1.657   7.951  0.1306  0.1201  0.6774
22701NA      NA70028   7.627   1.914   1.058 -0.4775  0.4461 -0.3338
22702NA      NA70029   3.811   1.052   4.819 -0.0886 -0.4629  0.4872
22703NA      NA70030   0.144   7.736   1.155  0.1307 -0.0338 -0.1721
22704NA      NA70031   7.253   8.140   4.958 -0.5990  0.2879 -0.2464
22705NA      NA70032   4.509   5.812   6.186 -0.2076 -0.4619 -0.2739
22706NA      NA70033   2.639   3.415   5.309 -0.1784  0.1563  0.3810
22707NA      NA70034   2.008   3.851   1.258  0.2125 -0.2605 -0.2704
22708NA      NA70035   0.035   6.479   0.267 -0.5222  0.2647  0.1180
22709NA      NA70036   0.438   2.178   7.031 -0.1338 -0.4012 -0.2117
22710NA      NA70037   8.773   0.311   0.322 -0.4481  0.3224 -0.2116
22711NA      NA70038   8.422   1.811   4.811 -0.3187 -0.5321  0.3052
22712NA      NA70039   1.213   5.116   6.485 -0.0272 -0.3234 -0.3163
22713NA      NA70040   6.526   7.502   2.700  0.0087 -0.2109  0.3448
22714NA      NA70041   8.211   8.751   3.227 -0.2451 -0.3735 -0.2770
22715NA      NA70042   2.425   0.789   3.510  0.2308  0.0046 -0.1233
22716NA      NA70043   4.962   3.688   6.207 -0.3483  0.1798 -0.1216
22717NA      NA70044   0.543   1.364   6.404 -0.4236  0.5645  0.2283
22718NA      NA70045   7.032   5.080   5.655 -0.5372  0.1194  0.0996
22719NA      NA70046   8.500   6.384   5.254  0.1330  0.0406  0.0347
22720NA      NA70047   5.925   1.293   6.737  0.0736  0.5651  0.0713
22721NA      NA70048   4.958   7.903   5.524  0.3334 -0.0653 -0.2997
22722NA      NA70049   1.889   8.353   6.373 -0.1753  0.1382  0.3616
22723NA      NA70050   5.293   2.010   5.425  0.0992 -0.5856  0.1819
22724NA      NA70051   6.693   5.248   4.884  0.3032 -0.3460 -0.1209
22725NA      NA70052   6.843   5.241   0.689 -0.1680  0.2011  0.1054
22726NA      NA70053   8.480   5.057   8.210 -0.2718  0.3742 -0.0939
22727NA      NA70054   1.918   3.871   6.898  0.2549 -0.0112 -0.4359
22728NA      NA70055   5.305   8.231   4.205  0.3522  0.2760  0.5954
22729NA      NA70056   8.422   5.904   8.336  0.2941  0.1773 -0.0228
22730NA      NA70057   7.312   6.948   6.573  0.0549 -0.0323  0.2216
22731NA      NA70058   6.824   0.442   8.379  0.4232 -0.6522  0.7716
22732CL      CL70059   1.170   5.158   0.662  0.4928 -0.0453  0.6886
22733CL      CL70060   2.818   5.816   1.727 -0.0130 -0.0990  0.1461
22734CL      CL70061   3.018   5.697   1.071 -0.0727  0.5158  0.0884
22735CL      CL70062   3.257   3.225   1.753  0.2702 -0.3580  0.0171
22736CL      CL70063   4.364   2.041   1.421 -0.1770  0.0447  0.0713
22737CL      CL70064   0.420   3.724   3.909 -0.5696  0.0437 -0.0473
22738CL      CL70065   3.780   1.066   4.274 -0.1732 -0.4564  0.2610
22739CL      CL70066   7.778   7.764   7.484  0.0601  0.3275  0.0821
22740CL      CL70067   1.756   4.409   0.986 -0.1364  0.1660  0.0540
22741CL      CL70068   2.558   5.801   6.166 -0.1817 -0.0007 -0.2888
22742CL      CL70069   2.941   3.234   2.382  0.1820 -0.1988  0.3260
22743CL      CL70070   3.577   2.737   4.446  0.1381 -0.4815  0.2266
22744CL      CL70071   3.681   5.314   0.274  0.0437  0.0499 -0.2043
22745CL      CL70072   1.967   5.821   3.104 -0.2683  0.3669  0.1788
22746CL      CL70073   2.147   1.870   1.033 -0.1434  0.6065 -0.1790
22747CL      CL70074   2.420   7.609   3.803 -0.2348  0.0987 -0.0287
22748CL      CL70075   1.266   5.729   3.476 -0.1990  0.0206 -0.0366
22749CL      CL70076   4.325   4.106   8.766  0.3069 -0.0983 -0.1209
22750CL      CL70077   5.878   7.267   0.004  0.1787 -0.2187  0.4006
22751CL      CL70078   4.123   2.444   2.204  0.0642 -0.2926  0.0405
22752CL      CL70079   8.245   2.398   2.209 -0.0655 -0.5918 -0.0640
22753CL      CL70080   2.395   6.125   3.243 -0.1392 -0.1983 -0.1649
22754CL      CL70081   6.670   8.004   5.049  0.1853  0.6654 -0.0484
22755CL      CL70082   3.033   4.594   2.849  0.1384 -0.3217 -0.0338
22756CL      CL70083   2.757   7.328   3.248 -0.0798  0.4626 -0.0752
22757CL      CL70084   1.844   4.888   6.411 -0.0054  0.0200  0.2091
22758CL      CL70085   4.959   4.217   0.771  0.0721 -0.0380 -0.3768
22759CL      CL70086   6.720   8.638   8.526 -0.1925  0.2853  0.3048
22760CL      CL70087   1.037   6.438   0.167  0.1917  0.3210  0.1329
22761CL      CL70088   6.180   6.513   0.333  0.2827  0.1582 -0.0878
22762CL      CL70089   1.709   4.545   1.463 -0.0600  0.1557 -0.4766
22763CL      CL70090   3.961   1.611   3.793  0.0551  0.0053  0.2511
22764CL      CL70091   4.917   1.740   0.210 -0.2535  0.0799  0.1290
22765CL      CL70092   5.595   3.491   1.763 -0.4375  0.1010 -0.1544
22766CL      CL70093   0.801   0.277   8.172  0.0115  0.0330 -0.4643
22767CL      CL70094   2.836   2.892   0.685  0.1533  0.2367 -0.2796
22768CL      CL70095   3.323   4.674   0.845 -0.1299  0.0895 -0.1350
22769CL      CL70096   5.856   5.283   3.719  0.2106  0.2775  0.0955
22770CL      CL70097   4.421   5.718   2.087  0.2585  0.0728 -0.0521
22771CL      CL70098   0.883   7.915   1.777  0.2960 -0.1097  0.5269
22772CL      CL70099   5.399   2.783   1.224  0.4761 -0.1600 -0.3281
22773CL      CL70100   3.690   6.332   8.335  0.6623  0.0915  0.1698
22774CL      CL70101   8.646   8.190   0.877 -0.2317  0.1980 -0.2812
22775CL      CL70102   0.326   1.256   5.787  0.2068 -0.0895  0.1066
22776CL      CL70103   6.879   5.597   6.320  0.0066  0.1538  0.2665
22777CL      CL70104   2.224   3.796   0.820  0.4303 -0.2920  0.0857
22778CL      CL70105   4.030   6.944   8.191  0.1599  0.0420 -0.0766
22779CL      CL70106   6.591   3.416   7.366  0.0006  0.0556 -0.3515
22780CL      CL70107   2.633   0.380   3.614  0.2788  0.4725 -0.1331
22781CL      CL70108   4.265   0.260   7.023 -0.0510 -0.0100  0.1638
22782CL      CL70109   1.904   6.573   5.457  0.0516  0.3993  0.0451
22783CL      CL70110   3.429   5.826   8.119 -0.0775  0.1380  0.4512
22784CL      CL70111   6.167   7.773   3.313  0.1137 -0.1262  0.0778
22785CL      CL70112   4.697   5.575   2.465  0.1876 -0.5882  0.2341
22786CL      CL70113   7.878   4.344   6.183 -0.3705 -0.3781  0.1705
22787CL      CL70114   3.639   7.216   0.536  0.0800  0.4053 -0.2265
22788CL      CL70115   1.805   7.661   1.519 -0.1936  0.2979  0.1355
22789CL      CL70116   3.596   5.900   2.801 -0.3193 -0.1822 -0.2364
22790CL      CL70117   5.553   7.106   3.871 -0.2129 -0.0769  0.1972
22791CL      CL70118   0.102   3.330   1.140 -0.3539  0.7354 -0.5303
22792CL      CL70119   2.029   2.945   7.906  0.1085 -0.0740  0.2589
22793CL      CL70120   8.476   2.236   1.631 -0.1405  0.0233 -0.1180
22794CL      CL70121   0.903   6.416   5.870  0.1054  0.2109 -0.0896
22795CL      CL70122   1.079   2.677   3.246 -0.2462  0.1938  0.1492
22796CL      CL70123   5.580   0.348   6.648 -0.2482  0.5211 -0.2960
22797CL      CL70124   5.265   6.305   3.136  0.2063  0.0860  0.2915
22798CL      CL70125   7.577   3.469   3.934  0.0547 -0.3188  0.2763
22799CL      CL70126   6.329   4.376   1.338 -0.1167 -0.5835  0.0384
22800CL      CL70127   8.544   1.239   2.287  0.0832 -0.1588 -0.0481
22801CL      CL70128   1.023   0.749   2.232  0.1826 -0.2034 -0.2851
22802CL      CL70129   2.817   8.157   7.307 -0.2950  0.0736 -0.1422
22803CL      CL70130   1.549   6.494   1.558 -0.1437  0.2801 -0.1938
22804CL      CL70131   8.830   5.358   8.126 -0.3758 -0.3414  0.1503
22805CL      CL70132   0.126   8.305   2.600  0.2056 -0.0712 -0.0083
22806CL      CL70133   8.373   7.452   8.517  0.0605 -0.3655  0.1179
22807CL      CL70134   1.223   4.394   2.187 -0.0566  0.0594 -0.7128
22808CL      CL70135   5.003   3.462   2.128  0.5241 -0.0496  0.0640
22809CL      CL70136   7.255   5.367   0.359  0.1145 -0.2552 -0.1816
22810CL      CL70137   5.640   5.417   5.862 -0.0173 -0.0274  0.3649
22811CL      CL70138   2.420   8.539   4.419 -0.5111 -0.2519  0.1838
22812CL      CL70139   0.428   1.901   4.746  0.4388  0.2621 -0.1426
22813CL      CL70140   3.780   5.455   2.535 -0.5031 -0.4445  0.2787
22814CL      CL70141   4.670   4.722   8.375 -0.2048 -0.0751  0.2532
22815CL      CL70142   7.726   1.464   7.700 -0.2749  0.5197  0.0670
22816CL      CL70143   5.718   3.078   7.582 -0.0798 -0.2108 -0.4152
22817CL      CL70144   5.262   4.755   8.030 -0.6215  0.2709  0.0223
22818CL      CL70145   7.569   8.710   4.091  0.4341  0.4441 -0.0972
22819CL      CL70146   4.949   4.166   8.115 -0.0279  0.1751  0.7132
22820CL      CL70147   3.737   6.751   2.267  0.4202 -0.0980  0.1655
22821CL      CL70148   7.512   6.505   3.840  0.2700 -0.1589  0.3978
22822CL      CL70149   6.185   1.323   5.059  0.0697  0.2337 -0.3480
22823CL      CL70150   8.403   1.896   4.588  0.1925 -0.2010  0.0837
22824CL      CL70151   2.293   4.549   2.010  0.0941 -0.1379  0.0687
22825CL      CL70152   3.120   2.952   3.262 -0.0328  0.3896  0.3132
22826CL      CL70153   3.815   4.272   1.251  0.1251 -0.2286  0.2776
22827CL      CL70154   3.925   5.179   3.416  0.1449  0.0031 -0.2313
22828CL      CL70155   0.665   7.730   5.078 -0.2906  0.0824 -0.1558
22829CL      CL70156   3.965   1.339   7.564 -0.1394 -0.2056  0.3150
22830CL      CL70157   2.346   3.188   1.450 -0.1541  0.2826 -0.1199
22831CL      CL70158   5.350   0.184   3.283  0.1925 -0.0896 -0.4799
22832CL      CL70159   4.059   2.507   3.525 -0.2867 -0.1278 -0.0121
22833CL      CL70160   0.090   6.347   0.065 -0.0479  0.1313 -0.2786
22834CL      CL70161   2.939   7.459   5.681 -0.3301  0.0632 -0.0294
22835CL      CL70162   6.626   4.397   4.320 -0.0198  0.0410  0.2334
22836CL      CL70163   4.837   4.974   3.296 -0.0324  0.1644  0.1814
22837CL      CL70164   3.281   2.002   2.355 -0.0910  0.0897 -0.3057
22838CL      CL70165   5.385   6.668   0.433 -0.5727 -0.1064  0.5126
22839CL      CL70166   5.150   6.941   1.140 -0.1389  0.0537 -0.1611
22840CL      CL70167   1.989   4.090   2.671  0.0830  0.1931  0.1477
22841CL      CL70168   4.989   4.359   4.618  0.2707 -0.1044 -0.4741
22842CL      CL70169   4.789   3.318   3.289  0.1705 -0.1249  0.1775
22843CL      CL70170   0.731   0.770   1.528 -0.3054 -0.2861 -0.3631
22844CL      CL70171   4.512   8.208   1.977 -0.0971  0.1750  0.0425
22845CL      CL70172   3.306   2.778   4.103  0.1339  0.0171 -0.1166
22846CL      CL70173   0.995   5.995   2.275  0.5146  0.0118  0.4304
22847CL      CL70174   4.553   3.707   5.945  0.3625 -0.0516 -0.1924
22848CL      CL70175   0.679   4.684   0.670 -0.0938  0.1673 -0.3994
22849CL      CL70176   4.065   4.622   2.372  0.4074 -0.4338 -0.0599
22850CL      CL70177   0.527   4.340   0.306  0.2927  0.1937  0.3251
22851CL      CL70178   2.069   3.493   3.578  0.1722 -0.1841 -0.0204
22852CL      CL70179   4.498   4.318   3.808  0.0317 -0.0924 -0.2530
22853CL      CL70180   4.375   3.318   1.294  0.4940  0.0815 -0.1064
22854CL      CL70181   4.254   3.884   3.707  0.0500  0.2156 -0.1137
22855CL      CL70182   5.042   3.016   3.020  0.1840 -0.3363 -0.1433
22856CL      CL70183   4.652   5.233   0.748  0.0426  0.6204 -0.0543
22857CL      CL70184   3.656   2.232   2.931  0.0726  0.1367 -0.3260
22858CL      CL70185   7.106   3.400   0.743 -0.0984  0.3819  0.0102
22859CL      CL70186   3.861   5.121   1.368  0.5281 -0.0518  0.0682
22860CL      CL70187   1.397   8.093   2.477 -0.0477 -0.1459  0.1769
22861CL      CL70188   1.244   5.177   3.942 -0.0951 -0.0855 -0.0789
22862CL      CL70189   3.488   3.039   8.109  0.2713  0.0847  0.0812
22863CL      CL70190   0.741   4.079   8.629  0.0492  0.0219 -0.0434
22864CL      CL70191   5.389   3.394   6.568  0.5480  0.0124  0.2278
22865CL      CL70192   5.766   3.285   3.087  0.3769 -0.2648 -0.1231
22866CL      CL70193   7.085   7.237   8.701  0.3416  0.4719  0.3504
22867CL      CL70194   4.168   2.303   4.090  0.4972  0.4778  0.2321
22868CL      CL70195   2.925   4.388   8.110 -0.2176  0.1551 -0.1811
22869CL      CL70196   4.747   3.943   1.581 -0.4279 -0.0240  0.1611
22870CL      CL70197   4.156   5.765   7.025  0.0917  0.1784  0.3125
22871CL      CL70198   0.516   0.723   6.962  0.0644  0.0126 -0.1126
22872CL      CL70199   2.284   1.074   3.186 -0.1548 -0.0767 -0.2247
22873CL      CL70200   2.880   4.655   0.389  0.0524  0.3892  0.4426
22874CL      CL70201   3.798   3.956   2.324 -0.0390 -0.3885 -0.1652
22875CL      CL70202   4.745   0.756   0.331  0.0040  0.1025 -0.3271
22876CL      CL70203   3.770   6.367   0.731  0.1416 -0.3036 -0.0908
22877CL      CL70204   1.680   4.699   2.961  0.1199 -0.3135  0.3295
22878CL      CL70205   4.452   4.852   7.354  0.1499  0.0906 -0.4917
22879CL      CL70206   2.442   1.689   2.786 -0.1598 -0.0662 -0.3702
22880CL      CL70207   4.859   0.748   8.751 -0.6231  0.1922 -0.1895
22881CL      CL70208   1.176   3.394   2.660  0.2519  0.3808  0.2649
22882CL      CL70209   4.311   3.050   0.336  0.1101  0.1838 -0.4051
22883CL      CL70210   1.534   7.106   4.637 -0.8051  0.1795  0.1210
22884CL      CL70211   2.260   5.638   6.944 -0.3857  0.1334 -0.1337
22885CL      CL70212   8.231   1.023   1.441  0.0640  0.0483 -0.1237
22886CL      CL70213   3.748   1.637   0.659  0.2007  0.1308 -0.1492
22887CL      CL70214   1.922   6.848   1.881  0.0739 -0.3146  0.0327
22888CL      CL70215   2.578   5.671   0.087  0.3025 -0.4807  0.2786
22889CL      CL70216   0.247   6.839   2.618  0.1274 -0.1100 -0.0674
22890CL      CL70217   6.503   5.791   1.160  0.3854 -0.1663 -0.2978
22891CL      CL70218   7.510   7.487   2.714  0.1358 -0.2394 -0.3462
22892CL      CL70219   1.179   2.831   7.456 -0.0361  0.0518 -0.1936
22893CL      CL70220   2.965   4.459   6.403  0.3162 -0.0466  0.2261
22894CL      CL70221   8.816   8.244   8.306 -0.1112  0.2493  0.3407
22895CL      CL70222   4.358   2.640   8.334  0.3616 -0.0562  0.3314
22896CL      CL70223   6.966   3.779   4.409  0.0645 -0.3581 -0.0223
22897CL      CL70224   4.427   8.463   6.594  0.0279  0.2326 -0.1063
22898CL      CL70225   3.738   6.015   3.835 -0.2686 -0.1608 -0.4856
22899CL      CL70226   1.774   7.155   8.776  0.0767 -0.0406 -0.2364
22900CL      CL70227   3.768   8.743   5.659 -0.0282 -0.2115  0.1185
22901CL      CL70228   5.089   1.485   4.890 -0.3417  0.2094  0.0970
22902CL      CL70229   8.323   2.624   0.299  0.3279 -0.1417  0.2472
22903CL      CL70230   1.176   0.982   2.566 -0.4439  0.1652 -0.1039
22904CL      CL70231   0.643   5.222   1.165 -0.4873  0.3328 -0.4324
22905CL      CL70232   5.513   5.470   1.183 -0.2457 -0.0579 -0.1528
22906CL      CL70233   7.811   5.588   2.896 -0.4182  0.1346  0.1678
22907CL      CL70234   1.616   6.917   3.706  0.2330 -0.3284 -0.2380
22908CL      CL70235   5.696   1.615   6.431 -0.0581  0.3170  0.0245
22909CL      CL70236   3.567   3.864   8.571 -0.3162  0.0971 -0.0143
22910CL      CL70237   4.454   2.971   4.808  0.1594  0.6247 -0.0835
22911CL      CL70238   4.312   6.410   4.051  0.0445  0.1474  0.2309
22912CL      CL70239   0.460   6.055   0.426 -0.0628 -0.3014 -0.4415
22913CL      CL70240   4.052   6.317   5.563 -0.1276 -0.4823  0.1739
22914CL      CL70241   5.708   4.658   2.417 -0.4970 -0.2375 -0.2558
22915CL      CL70242   0.951   4.091   1.619  0.0474 -0.0580  0.0919
22916CL      CL70243   5.472   3.930   1.731  0.0860  0.1833  0.2553
22917CL      CL70244   5.345   7.512   4.549 -0.1366  0.0656 -0.0078
22918CL      CL70245   3.572   0.864   2.842 -0.1377 -0.1992 -0.0550
22919CL      CL70246   4.016   8.148   0.093 -0.0625 -0.1924 -0.5532
22920CL      CL70247   5.168   6.985   1.622 -0.0324 -0.1384 -0.0328
22921CL      CL70248   4.531   2.123   2.357 -0.2824  0.4991 -0.0088
22922CL      CL70249   3.047   6.609   0.642  0.2845 -0.2272 -0.2608
   8.89501   8.89501   8.89501
